 Gaussian 09, Revision D.01,
 Gaussian 09:  ES64L-G09RevD.01 24-Apr-2013

 -----------------------
 # opt freq rb3lyp/6-31g
 -----------------------

 -----------------------
 Ala-S-opt-freq-p2-6-31g
 -----------------------
 Symbolic Z-matrix:
 Charge =  0 Multiplicity = 1

 SCF Done:  E(RB3LYP) =  -323.506854332     A.U. after   15 cycles
 SCF Done:  E(RB3LYP) =  -323.546059786     A.U. after   15 cycles
 SCF Done:  E(RB3LYP) =  -323.579591952     A.U. after   15 cycles
 SCF Done:  E(RB3LYP) =  -323.588550992     A.U. after   14 cycles
 SCF Done:  E(RB3LYP) =  -323.591802430     A.U. after   14 cycles
 SCF Done:  E(RB3LYP) =  -323.592370834     A.U. after   12 cycles
 SCF Done:  E(RB3LYP) =  -323.592584645     A.U. after   12 cycles
 SCF Done:  E(RB3LYP) =  -323.592667033     A.U. after   12 cycles
 SCF Done:  E(RB3LYP) =  -323.592694664     A.U. after   10 cycles
 SCF Done:  E(RB3LYP) =  -323.592732777     A.U. after   12 cycles
 SCF Done:  E(RB3LYP) =  -323.596102433     A.U. after   14 cycles
 SCF Done:  E(RB3LYP) =  -323.597353329     A.U. after   11 cycles
 SCF Done:  E(RB3LYP) =  -323.597103142     A.U. after   13 cycles
 SCF Done:  E(RB3LYP) =  -323.597353581     A.U. after    9 cycles
 SCF Done:  E(RB3LYP) =  -323.597356058     A.U. after    9 cycles
 SCF Done:  E(RB3LYP) =  -323.597358130     A.U. after   11 cycles
 SCF Done:  E(RB3LYP) =  -323.597358348     A.U. after    8 cycles
 SCF Done:  E(RB3LYP) =  -323.597358171     A.U. after    8 cycles
 SCF Done:  E(RB3LYP) =  -323.597358394     A.U. after    8 cycles
 Optimization completed.
    -- Stationary point found.
 Normal termination of Gaussian 09 at Sat Apr  2 23:22:29 2016.

 -----------------------------------------------------------------
 #N Geom=AllCheck Guess=TCheck SCRF=Check GenChk RB3LYP/6-31G Freq
 -----------------------------------------------------------------

 Structure from the checkpoint file:  "Ala-S-opt-freq-p2-6-31g.chk"
 -----------------------
 Ala-S-opt-freq-p2-6-31g
 -----------------------
 Charge =  0 Multiplicity = 1

                         Standard orientation:
 ---------------------------------------------------------------------
 Center     Atomic      Atomic             Coordinates (Angstroms)
 Number     Number       Type             X           Y           Z
 ---------------------------------------------------------------------
      1          7           0        1.283519    1.306929    0.027246
      2          1           0        2.280749    1.382855   -0.055218
      3          6           0        0.665578    0.058509    0.002012
      4          1           0       -1.907724   -1.423597   -0.703614
      5          6           0        1.573604   -1.139575   -0.005668
      6          6           0       -0.675464   -0.047989   -0.004465
      7          1           0        2.219121   -1.142487    0.882988
      8          1           0        0.992337   -2.062083   -0.008648
      9          1           0        2.228829   -1.132525   -0.888197
     10          8           0       -1.484745    1.103218   -0.095767
     11          1           0        0.721171    2.134713   -0.069476
     12          8           0       -1.365712   -1.263520    0.099641
     13          1           0       -2.097773    1.151367    0.669172
 ---------------------------------------------------------------------

 SCF Done:  E(RB3LYP) =  -323.597358394     A.U. after    1 cycles

 The electronic state is 1-A.
 Alpha  occ. eigenvalues --  -19.15504 -19.15428 -14.31515 -10.25077 -10.21270
 Alpha  occ. eigenvalues --  -10.17309  -1.06353  -1.00270  -0.89643  -0.74814
 Alpha  occ. eigenvalues --   -0.68091  -0.56948  -0.54799  -0.51889  -0.47765
 Alpha  occ. eigenvalues --   -0.42435  -0.40179  -0.39407  -0.38324  -0.37840
 Alpha  occ. eigenvalues --   -0.30992  -0.30094  -0.28920  -0.16766
 Alpha virt. eigenvalues --    0.06188   0.06363   0.09114   0.10269   0.14071
 Alpha virt. eigenvalues --    0.15901   0.18584   0.18969   0.23099   0.23999
 Alpha virt. eigenvalues --    0.26695   0.40304   0.44845   0.54669   0.58544

 Mulliken charges:
               1
     1  N   -0.795202
     2  H    0.303167
     3  C    0.400757
     4  H    0.366730
     5  C   -0.482143
     6  C    0.271604
     7  H    0.148853
     8  H    0.176085
     9  H    0.139358
    10  O   -0.613537
    11  H    0.322101
    12  O   -0.605627
    13  H    0.367855
 Sum of Mulliken charges =   0.00000

 Dipole moment (field-independent basis, Debye):
    X=              0.5339    Y=              0.5078    Z=             -0.4142  Tot=              0.8452
 Quadrupole moment (field-independent basis, Debye-Ang):
   XX=            -28.1266   YY=            -34.8535   ZZ=            -36.6648
   XY=              1.3918   XZ=             -0.6758   YZ=              3.8996

  Exact polarizability:  64.411   2.243  45.594  -0.046   1.495  27.201
 Approx polarizability:  93.207   7.247  59.391   0.386   0.570  35.683

                      1                      2                      3
                      A                      A                      A
 Frequencies --    111.9181               158.0956               202.2570
 Red. masses --      1.4350                 1.2807                 1.8194
 Frc consts  --      0.0106                 0.0189                 0.0439
 IR Inten    --     87.7080                27.4538                30.7240

                      4                      5                      6
                      A                      A                      A
 Frequencies --    241.5089               282.3432               323.3140
 Red. masses --      4.0532                 1.1146                 2.6613
 Frc consts  --      0.1393                 0.0524                 0.1639
 IR Inten    --      0.2338               152.1801                56.1713

                      7                      8                      9
                      A                      A                      A
 Frequencies --    356.9307               418.2889               485.8704
 Red. masses --      2.3747                 1.3326                 1.2783
 Frc consts  --      0.1782                 0.1374                 0.1778
 IR Inten    --      1.6887               128.7913               171.0555

                     10                     11                     12
                      A                      A                      A
 Frequencies --    524.3551               548.5892               566.6143
 Red. masses --      2.5231                 4.4213                 4.1615
 Frc consts  --      0.4087                 0.7840                 0.7872
 IR Inten    --    148.8264                20.6641                14.0204

                     13                     14                     15
                      A                      A                      A
 Frequencies --    740.9739               981.1637              1041.4187
 Red. masses --      5.6871                 2.7106                 1.3445
 Frc consts  --      1.8397                 1.5374                 0.8591
 IR Inten    --      3.3865                55.7035                 1.3376

                     16                     17                     18
                      A                      A                      A
 Frequencies --   1104.4028              1147.7398              1184.4500
 Red. masses --      1.4440                 1.4577                 4.3105
 Frc consts  --      1.0377                 1.1314                 3.5629
 IR Inten    --     10.1652               146.9711               235.3168

                     19                     20                     21
                      A                      A                      A
 Frequencies --   1267.9586              1322.1376              1383.5834
 Red. masses --      1.3444                 1.7195                 4.6111
 Frc consts  --      1.2735                 1.7710                 5.2007
 IR Inten    --     22.0105                18.4533                55.9744

                     22                     23                     24
                      A                      A                      A
 Frequencies --   1456.9562              1533.0650              1538.4625
 Red. masses --      1.2676                 1.0547                 1.0492
 Frc consts  --      1.5853                 1.4604                 1.4631
 IR Inten    --      6.1891                 7.2435                10.1224

                     25                     26                     27
                      A                      A                      A
 Frequencies --   1682.3926              1829.8701              3027.7351
 Red. masses --      1.1364                 7.3253                 1.0414
 Frc consts  --      1.8951                14.4515                 5.6250
 IR Inten    --     97.0981                13.9251                52.5592

                     28                     29                     30
                      A                      A                      A
 Frequencies --   3077.3563              3175.8948              3539.8377
 Red. masses --      1.0972                 1.0934                 1.0655
 Frc consts  --      6.1222                 6.4978                 7.8662
 IR Inten    --     33.2147                 6.3484                 2.9012

                     31                     32                     33
                      A                      A                      A
 Frequencies --   3564.9503              3647.9197              3783.0955
 Red. masses --      1.0649                 1.0443                 1.1036
 Frc consts  --      7.9742                 8.1878                 9.3059
 IR Inten    --      1.7863                29.8265                25.3990

 - Thermochemistry -
 -------------------
 Temperature   298.150 Kelvin.  Pressure   1.00000 Atm.
 Atom     1 has atomic number  7 and mass  14.00307

 Molecular mass:    89.04768 amu.
 Principal axes and moments of inertia in atomic units:
                           1         2         3
     Eigenvalues --   371.81171 557.81379 909.41126
           X            0.99914  -0.04129  -0.00204
           Y            0.04132   0.99902   0.01579
           Z            0.00138  -0.01586   0.99987
 This molecule is an asymmetric top.
 Rotational symmetry number  1.
 Rotational temperatures (Kelvin)      0.23295     0.15527     0.09524
 Rotational constants (GHZ):           4.85391     3.23538     1.98452
 Zero-point vibrational energy     276645.1 (Joules/Mol)
                                   66.11977 (Kcal/Mol)
 Warning -- explicit consideration of  12 degrees of freedom as
           vibrations may cause significant error
 Vibrational temperatures:    161.02   227.46   291.00   347.48   406.23
          (Kelvin)            465.18   513.54   601.82   699.06   754.43
                              789.30   815.23  1066.09  1411.67  1498.37
                             1588.99  1651.34  1704.16  1824.31  1902.26
                             1990.67  2096.23  2205.74  2213.50  2420.58
                             2632.77  4356.23  4427.62  4569.40  5093.03
                             5129.16  5248.54  5443.02

 Zero-point correction=                           0.105369 (Hartree/Particle)
 Thermal correction to Energy=                    0.113170
 Thermal correction to Enthalpy=                  0.114114
 Thermal correction to Gibbs Free Energy=         0.074329
 Sum of electronic and zero-point Energies=           -323.491990
 Sum of electronic and thermal Energies=              -323.484189
 Sum of electronic and thermal Enthalpies=            -323.483244
 Sum of electronic and thermal Free Energies=         -323.523029

                     E (Thermal)             CV                S
                      KCal/Mol        Cal/Mol-Kelvin    Cal/Mol-Kelvin
 Total                   71.015             27.372             83.734
 Electronic               0.000              0.000              0.000
 Translational            0.889              2.981             39.372
 Rotational               0.889              2.981             26.736
 Vibrational             69.238             21.411             17.626
 Vibration     1          0.607              1.940              3.235
 Vibration     2          0.621              1.894              2.572
 Vibration     3          0.639              1.837              2.112
 Vibration     4          0.658              1.777              1.792
 Vibration     5          0.681              1.706              1.519
 Vibration     6          0.708              1.629              1.293
 Vibration     7          0.732              1.561              1.135
 Vibration     8          0.781              1.431              0.898
 Vibration     9          0.842              1.281              0.694
 Vibration    10          0.879              1.196              0.600
 Vibration    11          0.904              1.143              0.547
 Vibration    12          0.923              1.103              0.511

 Optimization completed.
    -- Stationary point found.
 Normal termination of Gaussian 09 at Sat Apr  2 23:23:38 2016.
