 Gaussian 09, Revision D.01,
 Gaussian 09:  ES64L-G09RevD.01 24-Apr-2013

 -----------------------------------------------
 # opt=(calcfc,ts) freq rb3lyp/6-31g iop(1/11=1)
 -----------------------------------------------

 ------------------------
 Ala-S-opt-freq-ts3-6-31g
 ------------------------
 Symbolic Z-matrix:
 Charge =  0 Multiplicity = 1

 SCF Done:  E(RB3LYP) =  -323.457076245     A.U. after   16 cycles
 SCF Done:  E(RB3LYP) =  -323.481533286     A.U. after   15 cycles
 SCF Done:  E(RB3LYP) =  -323.497090189     A.U. after   15 cycles
 SCF Done:  E(RB3LYP) =  -323.508704968     A.U. after   15 cycles
 SCF Done:  E(RB3LYP) =  -323.510712043     A.U. after   15 cycles
 SCF Done:  E(RB3LYP) =  -323.514692467     A.U. after   16 cycles
 SCF Done:  E(RB3LYP) =  -323.512432493     A.U. after   15 cycles
 SCF Done:  E(RB3LYP) =  -323.507495282     A.U. after   16 cycles
 SCF Done:  E(RB3LYP) =  -323.511342660     A.U. after   14 cycles
 SCF Done:  E(RB3LYP) =  -323.512364989     A.U. after   15 cycles
 SCF Done:  E(RB3LYP) =  -323.513113771     A.U. after   14 cycles
 SCF Done:  E(RB3LYP) =  -323.513410522     A.U. after   14 cycles
 SCF Done:  E(RB3LYP) =  -323.513360336     A.U. after   15 cycles
 SCF Done:  E(RB3LYP) =  -323.512778813     A.U. after   15 cycles
 SCF Done:  E(RB3LYP) =  -323.513369799     A.U. after   14 cycles
 SCF Done:  E(RB3LYP) =  -323.513334129     A.U. after   15 cycles
 SCF Done:  E(RB3LYP) =  -323.513531203     A.U. after   13 cycles
 SCF Done:  E(RB3LYP) =  -323.513535678     A.U. after   11 cycles
 SCF Done:  E(RB3LYP) =  -323.513535999     A.U. after    9 cycles
 Optimization completed.
    -- Stationary point found.
 Normal termination of Gaussian 09 at Sun Apr  3 07:57:20 2016.

 ----------------------------------------------------------------------
 #N Geom=AllCheck Guess=TCheck SCRF=Check Test GenChk RB3LYP/6-31G Freq
 ----------------------------------------------------------------------

 Structure from the checkpoint file:  "Ala-S-opt-freq-ts3-6-31g.chk"
 ------------------------
 Ala-S-opt-freq-ts3-6-31g
 ------------------------
 Charge =  0 Multiplicity = 1

                         Standard orientation:
 ---------------------------------------------------------------------
 Center     Atomic      Atomic             Coordinates (Angstroms)
 Number     Number       Type             X           Y           Z
 ---------------------------------------------------------------------
      1          7           0        1.151428   -1.348196    0.104236
      2          1           0        2.128617   -1.572570    0.025398
      3          6           0        0.681570   -0.077320   -0.010744
      4          1           0       -2.230704    1.245802    0.104882
      5          6           0        1.637149    1.073325   -0.050645
      6          6           0       -0.701495    0.071035   -0.140424
      7          1           0        2.408120    0.936571   -0.821890
      8          1           0        1.102337    2.002696   -0.247258
      9          1           0        2.152130    1.173509    0.914428
     10          8           0       -1.576434   -1.100614    0.022564
     11          1           0        0.466305   -2.079368    0.250374
     12          8           0       -1.258538    1.335119    0.147803
     13          1           0       -1.110362   -0.547540   -1.107645
 ---------------------------------------------------------------------

 SCF Done:  E(RB3LYP) =  -323.513535999     A.U. after    1 cycles

 The electronic state is 1-A.
 Alpha  occ. eigenvalues --  -19.15036 -19.10879 -14.35990 -10.26588 -10.25125
 Alpha  occ. eigenvalues --  -10.19420  -1.04747  -0.96072  -0.92666  -0.76981
 Alpha  occ. eigenvalues --   -0.68787  -0.58545  -0.55207  -0.50696  -0.48125
 Alpha  occ. eigenvalues --   -0.44149  -0.42496  -0.41292  -0.39657  -0.34799
 Alpha  occ. eigenvalues --   -0.32654  -0.29398  -0.25030  -0.17348
 Alpha virt. eigenvalues --   -0.03382   0.07292   0.08761   0.10887   0.12632
 Alpha virt. eigenvalues --    0.14461   0.16327   0.17475   0.20362   0.23362
 Alpha virt. eigenvalues --    0.24962   0.34924   0.38425   0.53674   0.55185

 Mulliken charges:
               1
     1  N   -0.755344
     2  H    0.321740
     3  C    0.419082
     4  H    0.379762
     5  C   -0.473806
     6  C    0.087162
     7  H    0.149089
     8  H    0.199495
     9  H    0.168514
    10  O   -0.579039
    11  H    0.351929
    12  O   -0.588441
    13  H    0.319858
 Sum of Mulliken charges =   0.00000

 Dipole moment (field-independent basis, Debye):
    X=              3.3555    Y=             -0.0939    Z=             -1.0389  Tot=              3.5139
 Quadrupole moment (field-independent basis, Debye-Ang):
   XX=            -31.0656   YY=            -36.5749   ZZ=            -36.7001
   XY=             -6.2436   XZ=              1.2679   YZ=             -0.1648

  Exact polarizability:  73.234   0.881  49.672   2.928   0.085  28.079
 Approx polarizability: 143.469  11.098  74.264   8.549  -0.410  38.634

 ******    1 imaginary frequencies (negative Signs) ******

                      1                      2                      3
                      A                      A                      A
 Frequencies --  -1482.8355                84.7335               159.1170
 Red. masses --      1.1861                 1.0453                 4.4078
 Frc consts  --      1.5366                 0.0044                 0.0658
 IR Inten    --   1106.5863                 1.5043                12.1261

                      4                      5                      6
                      A                      A                      A
 Frequencies --    224.5128               245.2900               317.8888
 Red. masses --      4.3026                 1.3997                 2.0830
 Frc consts  --      0.1278                 0.0496                 0.1240
 IR Inten    --      3.3919                83.8913                56.0599

                      7                      8                      9
                      A                      A                      A
 Frequencies --    383.9446               446.7011               476.4662
 Red. masses --      2.9642                 1.9262                 1.7479
 Frc consts  --      0.2575                 0.2265                 0.2338
 IR Inten    --     22.6209               102.5210                68.6939

                     10                     11                     12
                      A                      A                      A
 Frequencies --    547.8002               614.9981               681.5734
 Red. masses --      4.3039                 2.0136                 2.4171
 Frc consts  --      0.7610                 0.4487                 0.6616
 IR Inten    --     13.7029               124.4108                55.0630

                     13                     14                     15
                      A                      A                      A
 Frequencies --    726.6498               926.4181               979.8592
 Red. masses --      2.4668                 2.8732                 1.1426
 Frc consts  --      0.7674                 1.4529                 0.6464
 IR Inten    --     58.1682                61.8495                26.1252

                     16                     17                     18
                      A                      A                      A
 Frequencies --   1050.8962              1092.5814              1099.3606
 Red. masses --      1.3391                 1.6316                 1.6311
 Frc consts  --      0.8713                 1.1476                 1.1615
 IR Inten    --      4.7271                20.2979                38.1777

                     19                     20                     21
                      A                      A                      A
 Frequencies --   1164.9170              1325.2788              1456.9103
 Red. masses --      3.0453                 1.6550                 1.3850
 Frc consts  --      2.4348                 1.7127                 1.7321
 IR Inten    --    288.1074                29.5263                19.5820

                     22                     23                     24
                      A                      A                      A
 Frequencies --   1463.5817              1519.8062              1531.8044
 Red. masses --      2.8891                 1.0850                 1.0547
 Frc consts  --      3.6462                 1.4766                 1.4582
 IR Inten    --     26.0561                12.6474                12.3714

                     25                     26                     27
                      A                      A                      A
 Frequencies --   1644.7925              1682.6164              2363.2523
 Red. masses --      2.0072                 1.7851                 1.0755
 Frc consts  --      3.1994                 2.9778                 3.5390
 IR Inten    --     22.3272               132.7656                88.7862

                     28                     29                     30
                      A                      A                      A
 Frequencies --   3029.3961              3080.4340              3181.1085
 Red. masses --      1.0415                 1.0971                 1.0938
 Frc consts  --      5.6313                 6.1336                 6.5212
 IR Inten    --     39.1417                19.7745                 1.8990

                     31                     32                     33
                      A                      A                      A
 Frequencies --   3567.3230              3670.3428              3735.7340
 Red. masses --      1.0481                 1.0651                 1.0996
 Frc consts  --      7.8588                 8.4538                 9.0414
 IR Inten    --     43.2666                47.6162                45.7831

 - Thermochemistry -
 -------------------
 Temperature   298.150 Kelvin.  Pressure   1.00000 Atm.
 Atom     1 has atomic number  7 and mass  14.00307

 Molecular mass:    89.04768 amu.
 Principal axes and moments of inertia in atomic units:
                           1         2         3
     Eigenvalues --   378.41324 548.08726 900.34777
           X            0.99991   0.01189   0.00566
           Y           -0.01189   0.99993  -0.00022
           Z           -0.00566   0.00016   0.99998
 This molecule is an asymmetric top.
 Rotational symmetry number  1.
 Rotational temperatures (Kelvin)      0.22889     0.15803     0.09620
 Rotational constants (GHZ):           4.76923     3.29280     2.00449
    1 imaginary frequencies ignored.
 Zero-point vibrational energy     266026.1 (Joules/Mol)
                                   63.58176 (Kcal/Mol)
 Warning -- explicit consideration of  10 degrees of freedom as
           vibrations may cause significant error
 Vibrational temperatures:    121.91   228.93   323.02   352.92   457.37
          (Kelvin)            552.41   642.70   685.53   788.16   884.84
                              980.63  1045.49  1332.91  1409.80  1512.00
                             1571.98  1581.73  1676.05  1906.78  2096.17
                             2105.77  2186.66  2203.92  2366.49  2420.91
                             3400.19  4358.62  4432.05  4576.90  5132.58
                             5280.80  5374.88

 Zero-point correction=                           0.101324 (Hartree/Particle)
 Thermal correction to Energy=                    0.108587
 Thermal correction to Enthalpy=                  0.109531
 Thermal correction to Gibbs Free Energy=         0.070506
 Sum of electronic and zero-point Energies=           -323.412212
 Sum of electronic and thermal Energies=              -323.404949
 Sum of electronic and thermal Enthalpies=            -323.404005
 Sum of electronic and thermal Free Energies=         -323.443030

                     E (Thermal)             CV                S
                      KCal/Mol        Cal/Mol-Kelvin    Cal/Mol-Kelvin
 Total                   68.140             25.508             82.135
 Electronic               0.000              0.000              0.000
 Translational            0.889              2.981             39.372
 Rotational               0.889              2.981             26.726
 Vibrational             66.362             19.547             16.036
 Vibration     1          0.601              1.960              3.778
 Vibration     2          0.621              1.892              2.560
 Vibration     3          0.649              1.804              1.922
 Vibration     4          0.660              1.771              1.764
 Vibration     5          0.704              1.639              1.321
 Vibration     6          0.753              1.504              1.024
 Vibration     7          0.806              1.368              0.806
 Vibration     8          0.833              1.302              0.720
 Vibration     9          0.903              1.145              0.549
 Vibration    10          0.974              1.000              0.425

 Normal termination of Gaussian 09 at Sun Apr  3 07:58:32 2016.
