 Gaussian 09, Revision D.01,
 Gaussian 09:  ES64L-G09RevD.01 24-Apr-2013

 -----------------------
 # opt freq rb3lyp/6-31g
 -----------------------

 -----------------------
 Ala-S-opt-freq-p3-6-31g
 -----------------------
 Symbolic Z-matrix:
 Charge =  0 Multiplicity = 1

 SCF Done:  E(RB3LYP) =  -323.329131271     A.U. after   18 cycles
 SCF Done:  E(RB3LYP) =  -323.457957428     A.U. after   15 cycles
 SCF Done:  E(RB3LYP) =  -323.527049478     A.U. after   15 cycles
 SCF Done:  E(RB3LYP) =  -323.548443612     A.U. after   16 cycles
 SCF Done:  E(RB3LYP) =  -323.562782565     A.U. after   16 cycles
 SCF Done:  E(RB3LYP) =  -323.567416270     A.U. after   13 cycles
 SCF Done:  E(RB3LYP) =  -323.571089615     A.U. after   15 cycles
 SCF Done:  E(RB3LYP) =  -323.573879313     A.U. after   16 cycles
 SCF Done:  E(RB3LYP) =  -323.575120683     A.U. after   14 cycles
 SCF Done:  E(RB3LYP) =  -323.576158027     A.U. after   13 cycles
 SCF Done:  E(RB3LYP) =  -323.600814397     A.U. after   13 cycles
 SCF Done:  E(RB3LYP) =  -323.601376705     A.U. after   13 cycles
 SCF Done:  E(RB3LYP) =  -323.602281013     A.U. after   13 cycles
 SCF Done:  E(RB3LYP) =  -323.602765170     A.U. after   12 cycles
 SCF Done:  E(RB3LYP) =  -323.602901129     A.U. after   12 cycles
 SCF Done:  E(RB3LYP) =  -323.602930046     A.U. after   11 cycles
 SCF Done:  E(RB3LYP) =  -323.602944290     A.U. after   12 cycles
 SCF Done:  E(RB3LYP) =  -323.602948879     A.U. after    9 cycles
 SCF Done:  E(RB3LYP) =  -323.602949958     A.U. after    8 cycles
 Optimization completed.
    -- Stationary point found.
 Normal termination of Gaussian 09 at Sun Apr  3 09:01:44 2016.

 -----------------------------------------------------------------
 #N Geom=AllCheck Guess=TCheck SCRF=Check GenChk RB3LYP/6-31G Freq
 -----------------------------------------------------------------

 Structure from the checkpoint file:  "Ala-S-opt-freq-p3-6-31g.chk"
 -----------------------
 Ala-S-opt-freq-p3-6-31g
 -----------------------
 Charge =  0 Multiplicity = 1

                         Standard orientation:
 ---------------------------------------------------------------------
 Center     Atomic      Atomic             Coordinates (Angstroms)
 Number     Number       Type             X           Y           Z
 ---------------------------------------------------------------------
      1          7           0        0.794153    1.459568   -0.349267
      2          1           0        1.728721    1.782138   -0.621319
      3          6           0        0.716648    0.242736    0.054995
      4          1           0       -1.613877   -1.022028   -1.148553
      5          6           0        1.823733   -0.762505    0.173539
      6          6           0       -0.695281   -0.232959    0.414271
      7          1           0        2.781293   -0.354598   -0.163747
      8          1           0        1.931386   -1.094088    1.214451
      9          1           0        1.573429   -1.648703   -0.419337
     10          8           0       -1.624687    0.820094    0.244649
     11          1           0       -1.111292    1.593038   -0.116135
     12          8           0       -1.023130   -1.362555   -0.444111
     13          1           0       -0.736796   -0.616679    1.438377
 ---------------------------------------------------------------------

 SCF Done:  E(RB3LYP) =  -323.602949958     A.U. after    1 cycles

 The electronic state is 1-A.
 Alpha  occ. eigenvalues --  -19.14305 -19.14061 -14.34677 -10.28979 -10.26098
 Alpha  occ. eigenvalues --  -10.19957  -1.06302  -0.99221  -0.93554  -0.76119
 Alpha  occ. eigenvalues --   -0.69107  -0.59638  -0.52923  -0.48715  -0.48185
 Alpha  occ. eigenvalues --   -0.47545  -0.43297  -0.42135  -0.36312  -0.33956
 Alpha  occ. eigenvalues --   -0.32747  -0.29735  -0.28405  -0.26303
 Alpha virt. eigenvalues --   -0.02489   0.07435   0.09210   0.11423   0.12396
 Alpha virt. eigenvalues --    0.15043   0.16203   0.16720   0.21218   0.22383
 Alpha virt. eigenvalues --    0.24589   0.28940   0.40499   0.52790   0.53849

 Mulliken charges:
               1
     1  N   -0.539959
     2  H    0.271694
     3  C    0.221242
     4  H    0.365496
     5  C   -0.450458
     6  C    0.266213
     7  H    0.143874
     8  H    0.169168
     9  H    0.201045
    10  O   -0.610940
    11  H    0.390296
    12  O   -0.587055
    13  H    0.159384
 Sum of Mulliken charges =   0.00000

 Dipole moment (field-independent basis, Debye):
    X=              3.2941    Y=              0.2122    Z=             -0.6319  Tot=              3.3609
 Quadrupole moment (field-independent basis, Debye-Ang):
   XX=            -35.0444   YY=            -39.8029   ZZ=            -33.7717
   XY=              1.1873   XZ=              2.3131   YZ=             -1.2394

  Exact polarizability:  45.835   0.738  50.828   0.446  -4.927  33.401
 Approx polarizability:  56.084   1.258  80.250   0.180  -9.886  45.210

                      1                      2                      3
                      A                      A                      A
 Frequencies --     85.2321               136.5816               151.6986
 Red. masses --      3.6260                 1.1965                 1.1066
 Frc consts  --      0.0155                 0.0132                 0.0150
 IR Inten    --      3.8730                67.0041                65.1660

                      4                      5                      6
                      A                      A                      A
 Frequencies --    252.9626               327.0424               410.4371
 Red. masses --      3.3215                 3.3197                 3.7779
 Frc consts  --      0.1252                 0.2092                 0.3750
 IR Inten    --      7.2953                 9.0049                 5.6845

                      7                      8                      9
                      A                      A                      A
 Frequencies --    477.9329               568.7156               619.9507
 Red. masses --      3.4634                 3.4462                 2.0979
 Frc consts  --      0.4661                 0.6567                 0.4751
 IR Inten    --     44.2541                 4.4973                45.9886

                     10                     11                     12
                      A                      A                      A
 Frequencies --    677.9939               817.2894               940.5560
 Red. masses --      1.3666                 2.1668                 1.8253
 Frc consts  --      0.3701                 0.8528                 0.9514
 IR Inten    --     57.7379                 0.8237                30.4124

                     13                     14                     15
                      A                      A                      A
 Frequencies --    967.4164              1003.2459              1078.5304
 Red. masses --      2.6351                 2.4370                 3.8041
 Frc consts  --      1.4530                 1.4452                 2.6072
 IR Inten    --    206.1005                22.9271               132.1462

                     16                     17                     18
                      A                      A                      A
 Frequencies --   1099.8532              1108.7610              1277.7302
 Red. masses --      1.3512                 1.5794                 1.2000
 Frc consts  --      0.9630                 1.1440                 1.1543
 IR Inten    --     60.2882                19.4706                25.5542

                     19                     20                     21
                      A                      A                      A
 Frequencies --   1295.7769              1378.4580              1415.6052
 Red. masses --      1.5833                 1.3641                 1.4505
 Frc consts  --      1.5663                 1.5272                 1.7126
 IR Inten    --     45.6793                71.2980                18.8979

                     22                     23                     24
                      A                      A                      A
 Frequencies --   1448.5056              1469.1034              1511.2066
 Red. masses --      1.2776                 1.3023                 1.0491
 Frc consts  --      1.5794                 1.6561                 1.4116
 IR Inten    --     14.7727               188.9488                12.7555

                     25                     26                     27
                      A                      A                      A
 Frequencies --   1527.5622              1729.5240              3047.4581
 Red. masses --      1.0744                 7.2720                 1.0370
 Frc consts  --      1.4771                12.8161                 5.6744
 IR Inten    --     30.2340                39.0146                 5.9736

                     28                     29                     30
                      A                      A                      A
 Frequencies --   3084.2201              3118.6233              3146.9073
 Red. masses --      1.0855                 1.0951                 1.1016
 Frc consts  --      6.0836                 6.2753                 6.4273
 IR Inten    --     44.5631                11.6530                11.3690

                     31                     32                     33
                      A                      A                      A
 Frequencies --   3359.7348              3441.4037              3630.5725
 Red. masses --      1.0629                 1.0768                 1.0650
 Frc consts  --      7.0686                 7.5136                 8.2708
 IR Inten    --    108.8740                 3.3687                22.0678

 - Thermochemistry -
 -------------------
 Temperature   298.150 Kelvin.  Pressure   1.00000 Atm.
 Atom     1 has atomic number  7 and mass  14.00307

 Molecular mass:    89.04768 amu.
 Principal axes and moments of inertia in atomic units:
                           1         2         3
     Eigenvalues --   369.73521 552.72890 824.31270
           X            0.99894  -0.04513   0.00888
           Y            0.04530   0.99875  -0.02088
           Z           -0.00793   0.02126   0.99974
 This molecule is an asymmetric top.
 Rotational symmetry number  1.
 Rotational temperatures (Kelvin)      0.23426     0.15670     0.10507
 Rotational constants (GHZ):           4.88117     3.26515     2.18939
 Zero-point vibrational energy     278769.3 (Joules/Mol)
                                   66.62747 (Kcal/Mol)
 Warning -- explicit consideration of   9 degrees of freedom as
           vibrations may cause significant error
 Vibrational temperatures:    122.63   196.51   218.26   363.96   470.54
          (Kelvin)            590.53   687.64   818.25   891.97   975.48
                             1175.90  1353.25  1391.89  1443.45  1551.76
                             1582.44  1595.26  1838.37  1864.33  1983.29
                             2036.74  2084.07  2113.71  2174.29  2197.82
                             2488.40  4384.61  4437.50  4487.00  4527.69
                             4833.90  4951.41  5223.58

 Zero-point correction=                           0.106178 (Hartree/Particle)
 Thermal correction to Energy=                    0.113276
 Thermal correction to Enthalpy=                  0.114220
 Thermal correction to Gibbs Free Energy=         0.075260
 Sum of electronic and zero-point Energies=           -323.496772
 Sum of electronic and thermal Energies=              -323.489674
 Sum of electronic and thermal Enthalpies=            -323.488730
 Sum of electronic and thermal Free Energies=         -323.527690

                     E (Thermal)             CV                S
                      KCal/Mol        Cal/Mol-Kelvin    Cal/Mol-Kelvin
 Total                   71.081             24.404             81.997
 Electronic               0.000              0.000              0.000
 Translational            0.889              2.981             39.372
 Rotational               0.889              2.981             26.624
 Vibrational             69.304             18.443             16.001
 Vibration     1          0.601              1.959              3.767
 Vibration     2          0.614              1.917              2.851
 Vibration     3          0.619              1.901              2.651
 Vibration     4          0.664              1.758              1.710
 Vibration     5          0.711              1.621              1.275
 Vibration     6          0.775              1.448              0.925
 Vibration     7          0.834              1.299              0.716
 Vibration     8          0.925              1.099              0.507
 Vibration     9          0.980              0.990              0.417

 Normal termination of Gaussian 09 at Sun Apr  3 16:39:43 2016.
