 Gaussian 09, Revision D.01,
 Gaussian 09:  ES64L-G09RevD.01 24-Apr-2013

 ------------------------------------------------
 #p opt=(calcfc,ts) freq rb3lyp/6-31g iop(1/11=1)
 ------------------------------------------------

 -------------------------
 Ala-S-opt-freq-tsb1-6-31g
 -------------------------
 Symbolic Z-matrix:
 Charge =  0 Multiplicity = 1

 SCF Done:  E(RB3LYP) =  -323.395588506     A.U. after   16 cycles
 SCF Done:  E(RB3LYP) =  -323.422795925     A.U. after   15 cycles
 SCF Done:  E(RB3LYP) =  -323.446327434     A.U. after   14 cycles
 SCF Done:  E(RB3LYP) =  -323.463461363     A.U. after   14 cycles
 SCF Done:  E(RB3LYP) =  -323.471132413     A.U. after   13 cycles
 SCF Done:  E(RB3LYP) =  -323.473668111     A.U. after   12 cycles
 SCF Done:  E(RB3LYP) =  -323.475553169     A.U. after   12 cycles
 SCF Done:  E(RB3LYP) =  -323.489368198     A.U. after   14 cycles
 SCF Done:  E(RB3LYP) =  -323.501953657     A.U. after   14 cycles
 SCF Done:  E(RB3LYP) =  -323.515848858     A.U. after   14 cycles
 SCF Done:  E(RB3LYP) =  -323.535859387     A.U. after   12 cycles
 SCF Done:  E(RB3LYP) =  -323.535860695     A.U. after    9 cycles
 SCF Done:  E(RB3LYP) =  -323.535860945     A.U. after    8 cycles
 SCF Done:  E(RB3LYP) =  -323.534991253     A.U. after   14 cycles
 SCF Done:  E(RB3LYP) =  -323.535739017     A.U. after   13 cycles
 SCF Done:  E(RB3LYP) =  -323.535839937     A.U. after   13 cycles
 SCF Done:  E(RB3LYP) =  -323.535860828     A.U. after   11 cycles
 SCF Done:  E(RB3LYP) =  -323.535861448     A.U. after    8 cycles
 SCF Done:  E(RB3LYP) =  -323.535861451     A.U. after    7 cycles
 Optimization completed.
    -- Stationary point found.
 Normal termination of Gaussian 09 at Tue Apr 12 17:09:53 2016.

 ----------------------------------------------------------------------
 #P Geom=AllCheck Guess=TCheck SCRF=Check Test GenChk RB3LYP/6-31G Freq
 ----------------------------------------------------------------------

 Structure from the checkpoint file:  "Ala-S-opt-freq-tsb1-6-31g.chk"
 -------------------------
 Ala-S-opt-freq-tsb1-6-31g
 -------------------------
 Charge =  0 Multiplicity = 1

                         Standard orientation:
 ---------------------------------------------------------------------
 Center     Atomic      Atomic             Coordinates (Angstroms)
 Number     Number       Type             X           Y           Z
 ---------------------------------------------------------------------
      1          7           0       -1.378686   -1.249286   -0.039705
      2          1           0       -0.715128   -1.963481    0.267981
      3          6           0       -0.601992    0.131170   -0.270523
      4          1           0       -1.192308   -0.768558   -1.112893
      5          6           0       -1.350944    1.358797    0.151324
      6          6           0        0.781435   -0.104113   -0.030463
      7          1           0       -1.561003    1.380564    1.234688
      8          1           0       -0.739610    2.234636   -0.083414
      9          1           0       -2.304321    1.472173   -0.379161
     10          8           0        1.304097   -1.236029    0.160559
     11          1           0       -2.254903   -1.179766    0.468180
     12          8           0        1.563924    1.044883   -0.067593
     13          1           0        2.502916    0.783475    0.036795
 ---------------------------------------------------------------------

 SCF Done:  E(RB3LYP) =  -323.535861451     A.U. after    1 cycles

 The electronic state is 1-A.
 Alpha  occ. eigenvalues --  -19.16837 -19.11122 -14.38209 -10.29980 -10.21135
 Alpha  occ. eigenvalues --  -10.18490  -1.08064  -0.99295  -0.93997  -0.76160
 Alpha  occ. eigenvalues --   -0.67526  -0.60528  -0.55254  -0.51638  -0.45353
 Alpha  occ. eigenvalues --   -0.44255  -0.42202  -0.40678  -0.39779  -0.36154
 Alpha  occ. eigenvalues --   -0.35075  -0.29034  -0.25793  -0.19701
 Alpha virt. eigenvalues --    0.01166   0.06718   0.07538   0.11247   0.11719
 Alpha virt. eigenvalues --    0.13737   0.15126   0.17767   0.19169   0.24470
 Alpha virt. eigenvalues --    0.25734   0.35623   0.38028   0.52663   0.54597

 Mulliken charges:
               1
     1  N   -0.751824
     2  H    0.363790
     3  C   -0.110321
     4  H    0.388316
     5  C   -0.446843
     6  C    0.489126
     7  H    0.129901
     8  H    0.189880
     9  H    0.131180
    10  O   -0.511928
    11  H    0.332419
    12  O   -0.582989
    13  H    0.379293
 Sum of Mulliken charges =   0.00000

 Dipole moment (field-independent basis, Debye):
    X=             -2.8594    Y=              0.0205    Z=              0.6190  Tot=              2.9257
 Quadrupole moment (field-independent basis, Debye-Ang):
   XX=            -29.4452   YY=            -38.8762   ZZ=            -36.8750
   XY=              5.3356   XZ=             -1.3487   YZ=             -0.0335

  Exact polarizability:  61.207   2.303  51.827   1.774  -0.853  29.581
 Approx polarizability:  87.092   2.697  80.616   6.788  -3.494  40.910

 ******    1 imaginary frequencies (negative Signs) ******

                      1                      2                      3
                      A                      A                      A
 Frequencies --  -1634.9276               145.1782               192.7608
 Red. masses --      1.1039                 4.4299                 1.1014
 Frc consts  --      1.7385                 0.0550                 0.0241
 IR Inten    --   1785.8189                 0.8072                 0.1472

                      4                      5                      6
                      A                      A                      A
 Frequencies --    240.5252               289.5827               321.2395
 Red. masses --      3.3595                 3.6078                 2.2499
 Frc consts  --      0.1145                 0.1783                 0.1368
 IR Inten    --      1.2026                50.4734                 3.2581

                      7                      8                      9
                      A                      A                      A
 Frequencies --    345.1843               489.4918               536.9075
 Red. masses --      1.1484                 4.5499                 1.2068
 Frc consts  --      0.0806                 0.6423                 0.2050
 IR Inten    --     18.7832                25.6135               132.1450

                     10                     11                     12
                      A                      A                      A
 Frequencies --    578.5744               674.7688               743.9107
 Red. masses --      4.6676                 4.4782                 8.3596
 Frc consts  --      0.9206                 1.2013                 2.7257
 IR Inten    --     10.9267                70.3545                55.6259

                     13                     14                     15
                      A                      A                      A
 Frequencies --    889.9829               957.1943              1023.1466
 Red. masses --      3.6201                 1.2355                 1.3281
 Frc consts  --      1.6894                 0.6669                 0.8191
 IR Inten    --     23.6807               188.0124                24.4785

                     16                     17                     18
                      A                      A                      A
 Frequencies --   1087.0233              1111.9432              1147.8456
 Red. masses --      1.5686                 1.4893                 2.4054
 Frc consts  --      1.0921                 1.0850                 1.8672
 IR Inten    --    224.0243                64.5745                71.8176

                     19                     20                     21
                      A                      A                      A
 Frequencies --   1287.8506              1413.9643              1459.9352
 Red. masses --      1.8712                 1.4122                 2.4239
 Frc consts  --      1.8285                 1.6635                 3.0439
 IR Inten    --      4.1666                55.4158                47.8563

                     22                     23                     24
                      A                      A                      A
 Frequencies --   1463.6960              1530.1524              1542.7433
 Red. masses --      1.2159                 1.0557                 1.0940
 Frc consts  --      1.5348                 1.4563                 1.5341
 IR Inten    --      1.6091                20.6161                50.1026

                     25                     26                     27
                      A                      A                      A
 Frequencies --   1559.0927              1701.7853              2309.9165
 Red. masses --      1.1459                 4.2213                 1.0789
 Frc consts  --      1.6411                 7.2029                 3.3918
 IR Inten    --     66.6920               225.0037                78.3023

                     28                     29                     30
                      A                      A                      A
 Frequencies --   2984.4535              3071.0004              3144.8731
 Red. masses --      1.0535                 1.0840                 1.0931
 Frc consts  --      5.5286                 6.0234                 6.3695
 IR Inten    --     77.3884                38.1545                 5.3111

                     31                     32                     33
                      A                      A                      A
 Frequencies --   3428.7986              3612.3186              3633.2903
 Red. masses --      1.0456                 1.1007                 1.0641
 Frc consts  --      7.2427                 8.4626                 8.2764
 IR Inten    --     32.9957                29.6914                40.2287

 - Thermochemistry -
 -------------------
 Temperature   298.150 Kelvin.  Pressure   1.00000 Atm.
 Atom     1 has atomic number  7 and mass  14.00307

 Molecular mass:    89.04768 amu.
 Principal axes and moments of inertia in atomic units:
                           1         2         3
     Eigenvalues --   381.16272 545.40336 891.64388
           X            0.99995  -0.00849  -0.00592
           Y            0.00853   0.99993   0.00794
           Z            0.00585  -0.00799   0.99995
 This molecule is an asymmetric top.
 Rotational symmetry number  1.
 Rotational temperatures (Kelvin)      0.22724     0.15881     0.09714
 Rotational constants (GHZ):           4.73483     3.30900     2.02406
    1 imaginary frequencies ignored.
 Zero-point vibrational energy     268676.1 (Joules/Mol)
                                   64.21512 (Kcal/Mol)
 Warning -- explicit consideration of   9 degrees of freedom as
           vibrations may cause significant error
 Vibrational temperatures:    208.88   277.34   346.06   416.64   462.19
          (Kelvin)            496.64   704.27   772.49   832.44   970.84
                             1070.32  1280.49  1377.19  1472.08  1563.98
                             1599.84  1651.49  1852.93  2034.38  2100.52
                             2105.93  2201.55  2219.66  2243.18  2448.49
                             3323.45  4293.96  4418.48  4524.77  4933.27
                             5197.31  5227.49

 Zero-point correction=                           0.102333 (Hartree/Particle)
 Thermal correction to Energy=                    0.109154
 Thermal correction to Enthalpy=                  0.110099
 Thermal correction to Gibbs Free Energy=         0.072202
 Sum of electronic and zero-point Energies=           -323.433528
 Sum of electronic and thermal Energies=              -323.426707
 Sum of electronic and thermal Enthalpies=            -323.425763
 Sum of electronic and thermal Free Energies=         -323.463660

                     E (Thermal)             CV                S
                      KCal/Mol        Cal/Mol-Kelvin    Cal/Mol-Kelvin
 Total                   68.495             24.309             79.761
 Electronic               0.000              0.000              0.000
 Translational            0.889              2.981             39.372
 Rotational               0.889              2.981             26.719
 Vibrational             66.718             18.347             13.669
 Vibration     1          0.617              1.908              2.734
 Vibration     2          0.635              1.850              2.201
 Vibration     3          0.658              1.778              1.799
 Vibration     4          0.686              1.693              1.476
 Vibration     5          0.707              1.633              1.304
 Vibration     6          0.724              1.585              1.188
 Vibration     7          0.845              1.273              0.685
 Vibration     8          0.892              1.168              0.572
 Vibration     9          0.935              1.078              0.488

 Optimization completed.
    -- Stationary point found.
 Normal termination of Gaussian 09 at Tue Apr 12 17:11:18 2016.
