 Gaussian 09, Revision D.01,
 Gaussian 09:  ES64L-G09RevD.01 24-Apr-2013

 -----------------------------------------------
 # opt=(calcfc,ts) freq rb3lyp/6-31g iop(1/11=1)
 -----------------------------------------------

 ------------------------
 Ala-S-opt-freq-ts3-6-31g
 ------------------------
 Symbolic Z-matrix:
 Charge =  0 Multiplicity = 1

 SCF Done:  E(RB3LYP) =  -323.440817889     A.U. after   19 cycles
 SCF Done:  E(RB3LYP) =  -323.448095143     A.U. after   15 cycles
 SCF Done:  E(RB3LYP) =  -323.456542805     A.U. after   16 cycles
 SCF Done:  E(RB3LYP) =  -323.464667834     A.U. after   14 cycles
 SCF Done:  E(RB3LYP) =  -323.471402459     A.U. after   14 cycles
 SCF Done:  E(RB3LYP) =  -323.480047931     A.U. after   14 cycles
 SCF Done:  E(RB3LYP) =  -323.487045534     A.U. after   14 cycles
 SCF Done:  E(RB3LYP) =  -323.494193971     A.U. after   14 cycles
 SCF Done:  E(RB3LYP) =  -323.499193457     A.U. after   14 cycles
 SCF Done:  E(RB3LYP) =  -323.503465874     A.U. after   13 cycles
 SCF Done:  E(RB3LYP) =  -323.513269992     A.U. after   15 cycles
 SCF Done:  E(RB3LYP) =  -323.512636806     A.U. after   15 cycles
 SCF Done:  E(RB3LYP) =  -323.513441678     A.U. after   14 cycles
 SCF Done:  E(RB3LYP) =  -323.513497630     A.U. after   15 cycles
 SCF Done:  E(RB3LYP) =  -323.513535648     A.U. after   13 cycles
 SCF Done:  E(RB3LYP) =  -323.513536040     A.U. after   10 cycles
 SCF Done:  E(RB3LYP) =  -323.513535548     A.U. after   11 cycles
 SCF Done:  E(RB3LYP) =  -323.513536099     A.U. after   12 cycles
 SCF Done:  E(RB3LYP) =  -323.513536113     A.U. after    8 cycles
 Optimization completed.
    -- Stationary point found.
 Normal termination of Gaussian 09 at Sun Apr 10 10:54:59 2016.

 ----------------------------------------------------------------------
 #N Geom=AllCheck Guess=TCheck SCRF=Check Test GenChk RB3LYP/6-31G Freq
 ----------------------------------------------------------------------

 Structure from the checkpoint file:  "Ala-S-opt-freq-ts3-6-31g.chk"
 ------------------------
 Ala-S-opt-freq-ts3-6-31g
 ------------------------
 Charge =  0 Multiplicity = 1

                         Standard orientation:
 ---------------------------------------------------------------------
 Center     Atomic      Atomic             Coordinates (Angstroms)
 Number     Number       Type             X           Y           Z
 ---------------------------------------------------------------------
      1          7           0        1.151704   -1.348063    0.104595
      2          1           0        2.128713   -1.572512    0.023682
      3          6           0        0.681570   -0.077281   -0.010726
      4          1           0       -2.230906    1.245177    0.105687
      5          6           0        1.636937    1.073541   -0.050683
      6          6           0       -0.701502    0.070975   -0.140205
      7          1           0        2.150220    1.175173    0.915149
      8          1           0        2.409272    0.935847   -0.820389
      9          1           0        1.102290    2.002536   -0.249496
     10          8           0       -1.576303   -1.100781    0.022368
     11          1           0        0.466709   -2.079409    0.250442
     12          8           0       -1.258741    1.335029    0.147638
     13          1           0       -1.109900   -0.547774   -1.107608
 ---------------------------------------------------------------------

 SCF Done:  E(RB3LYP) =  -323.513536113     A.U. after    1 cycles

 The electronic state is 1-A.
 Alpha  occ. eigenvalues --  -19.15039 -19.10885 -14.35987 -10.26591 -10.25123
 Alpha  occ. eigenvalues --  -10.19419  -1.04752  -0.96075  -0.92667  -0.76981
 Alpha  occ. eigenvalues --   -0.68786  -0.58544  -0.55204  -0.50697  -0.48126
 Alpha  occ. eigenvalues --   -0.44149  -0.42496  -0.41294  -0.39660  -0.34799
 Alpha  occ. eigenvalues --   -0.32650  -0.29405  -0.25035  -0.17349
 Alpha virt. eigenvalues --   -0.03378   0.07294   0.08761   0.10881   0.12630
 Alpha virt. eigenvalues --    0.14462   0.16323   0.17481   0.20359   0.23357
 Alpha virt. eigenvalues --    0.24962   0.34933   0.38431   0.53677   0.55189

 Mulliken charges:
               1
     1  N   -0.755333
     2  H    0.321702
     3  C    0.418988
     4  H    0.379781
     5  C   -0.473701
     6  C    0.087241
     7  H    0.168613
     8  H    0.148957
     9  H    0.199423
    10  O   -0.579033
    11  H    0.351901
    12  O   -0.588412
    13  H    0.319874
 Sum of Mulliken charges =   0.00000

 Dipole moment (field-independent basis, Debye):
    X=              3.3530    Y=             -0.0945    Z=             -1.0409  Tot=              3.5122
 Quadrupole moment (field-independent basis, Debye-Ang):
   XX=            -31.0674   YY=            -36.5769   ZZ=            -36.6998
   XY=             -6.2408   XZ=              1.2535   YZ=             -0.1542

  Exact polarizability:  73.231   0.879  49.673   2.924   0.089  28.081
 Approx polarizability: 143.437  11.090  74.266   8.556  -0.406  38.640

 ******    1 imaginary frequencies (negative Signs) ******

                      1                      2                      3
                      A                      A                      A
 Frequencies --  -1483.1018                84.8119               159.1703
 Red. masses --      1.1861                 1.0454                 4.4073
 Frc consts  --      1.5371                 0.0044                 0.0658
 IR Inten    --   1107.0788                 1.5097                12.0991

                      4                      5                      6
                      A                      A                      A
 Frequencies --    224.5246               245.3111               317.8665
 Red. masses --      4.3075                 1.3982                 2.0838
 Frc consts  --      0.1279                 0.0496                 0.1240
 IR Inten    --      3.2852                83.9735                56.0391

                      7                      8                      9
                      A                      A                      A
 Frequencies --    383.8669               446.5460               476.4661
 Red. masses --      2.9619                 1.9253                 1.7499
 Frc consts  --      0.2571                 0.2262                 0.2341
 IR Inten    --     22.7911               102.4649                68.7976

                     10                     11                     12
                      A                      A                      A
 Frequencies --    547.8122               615.0128               681.5825
 Red. masses --      4.3073                 2.0140                 2.4147
 Frc consts  --      0.7616                 0.4488                 0.6609
 IR Inten    --     13.7111               124.4507                55.1064

                     13                     14                     15
                      A                      A                      A
 Frequencies --    726.5143               926.4045               979.8387
 Red. masses --      2.4683                 2.8701                 1.1430
 Frc consts  --      0.7676                 1.4512                 0.6466
 IR Inten    --     58.1851                61.8184                26.2664

                     16                     17                     18
                      A                      A                      A
 Frequencies --   1050.9334              1092.6383              1099.3340
 Red. masses --      1.3389                 1.6293                 1.6321
 Frc consts  --      0.8713                 1.1460                 1.1621
 IR Inten    --      4.7159                19.9342                38.5515

                     19                     20                     21
                      A                      A                      A
 Frequencies --   1164.9924              1325.3006              1456.9011
 Red. masses --      3.0502                 1.6552                 1.3906
 Frc consts  --      2.4390                 1.7129                 1.7390
 IR Inten    --    288.0753                29.5508                19.7592

                     22                     23                     24
                      A                      A                      A
 Frequencies --   1463.5312              1519.8218              1531.7527
 Red. masses --      2.8652                 1.0849                 1.0550
 Frc consts  --      3.6159                 1.4765                 1.4584
 IR Inten    --     25.9033                12.6289                12.3605

                     25                     26                     27
                      A                      A                      A
 Frequencies --   1644.9004              1682.6511              2363.0185
 Red. masses --      2.0061                 1.7857                 1.0755
 Frc consts  --      3.1980                 2.9789                 3.5383
 IR Inten    --     22.4080               132.4882                88.6944

                     28                     29                     30
                      A                      A                      A
 Frequencies --   3029.3982              3080.4230              3181.1059
 Red. masses --      1.0415                 1.0971                 1.0938
 Frc consts  --      5.6312                 6.1336                 6.5212
 IR Inten    --     39.1477                19.7943                 1.9082

                     31                     32                     33
                      A                      A                      A
 Frequencies --   3567.3683              3670.3015              3735.6185
 Red. masses --      1.0481                 1.0651                 1.0996
 Frc consts  --      7.8589                 8.4536                 9.0410
 IR Inten    --     43.2380                47.6553                45.6417

 - Thermochemistry -
 -------------------
 Temperature   298.150 Kelvin.  Pressure   1.00000 Atm.
 Atom     1 has atomic number  7 and mass  14.00307

 Molecular mass:    89.04768 amu.
 Principal axes and moments of inertia in atomic units:
                           1         2         3
     Eigenvalues --   378.42214 548.08572 900.35882
           X            0.99991   0.01190   0.00562
           Y           -0.01190   0.99993  -0.00019
           Z           -0.00562   0.00012   0.99998
 This molecule is an asymmetric top.
 Rotational symmetry number  1.
 Rotational temperatures (Kelvin)      0.22888     0.15803     0.09620
 Rotational constants (GHZ):           4.76912     3.29281     2.00447
    1 imaginary frequencies ignored.
 Zero-point vibrational energy     266023.9 (Joules/Mol)
                                   63.58123 (Kcal/Mol)
 Warning -- explicit consideration of  10 degrees of freedom as
           vibrations may cause significant error
 Vibrational temperatures:    122.03   229.01   323.04   352.95   457.34
          (Kelvin)            552.30   642.48   685.53   788.18   884.87
                              980.64  1045.29  1332.89  1409.77  1512.06
                             1572.06  1581.69  1676.16  1906.81  2096.15
                             2105.69  2186.68  2203.85  2366.64  2420.96
                             3399.85  4358.62  4432.04  4576.90  5132.64
                             5280.74  5374.72

 Zero-point correction=                           0.101323 (Hartree/Particle)
 Thermal correction to Energy=                    0.108586
 Thermal correction to Enthalpy=                  0.109531
 Thermal correction to Gibbs Free Energy=         0.070506
 Sum of electronic and zero-point Energies=           -323.412213
 Sum of electronic and thermal Energies=              -323.404950
 Sum of electronic and thermal Enthalpies=            -323.404005
 Sum of electronic and thermal Free Energies=         -323.443030

                     E (Thermal)             CV                S
                      KCal/Mol        Cal/Mol-Kelvin    Cal/Mol-Kelvin
 Total                   68.139             25.509             82.133
 Electronic               0.000              0.000              0.000
 Translational            0.889              2.981             39.372
 Rotational               0.889              2.981             26.726
 Vibrational             66.362             19.547             16.035
 Vibration     1          0.601              1.960              3.776
 Vibration     2          0.621              1.892              2.560
 Vibration     3          0.649              1.804              1.922
 Vibration     4          0.660              1.771              1.764
 Vibration     5          0.704              1.639              1.321
 Vibration     6          0.753              1.505              1.024
 Vibration     7          0.806              1.369              0.806
 Vibration     8          0.833              1.302              0.720
 Vibration     9          0.903              1.144              0.549
 Vibration    10          0.975              1.000              0.425

 Normal termination of Gaussian 09 at Sun Apr 10 10:55:58 2016.
