 Gaussian 09, Revision D.01,
 Gaussian 09:  ES64L-G09RevD.01 24-Apr-2013

 ------------------------------------------------
 #p opt=(calcfc,ts) freq rb3lyp/6-31g iop(1/11=1)
 ------------------------------------------------

 -------------------------
 Ala-S-opt-freq-tsa3-6-31g
 -------------------------
 Symbolic Z-matrix:
 Charge =  0 Multiplicity = 1

 SCF Done:  E(RB3LYP) =  -323.481628253     A.U. after   17 cycles
 SCF Done:  E(RB3LYP) =  -323.503097179     A.U. after   15 cycles
 SCF Done:  E(RB3LYP) =  -323.524330779     A.U. after   15 cycles
 SCF Done:  E(RB3LYP) =  -323.541235918     A.U. after   16 cycles
 SCF Done:  E(RB3LYP) =  -323.554837499     A.U. after   16 cycles
 SCF Done:  E(RB3LYP) =  -323.556538723     A.U. after   14 cycles
 SCF Done:  E(RB3LYP) =  -323.551764569     A.U. after   15 cycles
 SCF Done:  E(RB3LYP) =  -323.552839198     A.U. after   14 cycles
 SCF Done:  E(RB3LYP) =  -323.551347496     A.U. after   15 cycles
 SCF Done:  E(RB3LYP) =  -323.554783776     A.U. after   14 cycles
 SCF Done:  E(RB3LYP) =  -323.553734245     A.U. after   15 cycles
 SCF Done:  E(RB3LYP) =  -323.556652215     A.U. after   13 cycles
 SCF Done:  E(RB3LYP) =  -323.556996298     A.U. after   13 cycles
 SCF Done:  E(RB3LYP) =  -323.556826767     A.U. after   14 cycles
 SCF Done:  E(RB3LYP) =  -323.557067105     A.U. after   12 cycles
 SCF Done:  E(RB3LYP) =  -323.557079455     A.U. after   12 cycles
 SCF Done:  E(RB3LYP) =  -323.557089029     A.U. after   11 cycles
 SCF Done:  E(RB3LYP) =  -323.557084208     A.U. after   11 cycles
 SCF Done:  E(RB3LYP) =  -323.557089249     A.U. after   11 cycles
 Optimization completed.
    -- Stationary point found.
 Normal termination of Gaussian 09 at Thu Apr 14 10:51:28 2016.

 ----------------------------------------------------------------------
 #P Geom=AllCheck Guess=TCheck SCRF=Check Test GenChk RB3LYP/6-31G Freq
 ----------------------------------------------------------------------

 Structure from the checkpoint file:  "Ala-S-opt-freq-tsa3-6-31g.chk"
 -------------------------
 Ala-S-opt-freq-tsa3-6-31g
 -------------------------
 Charge =  0 Multiplicity = 1

                         Standard orientation:
 ---------------------------------------------------------------------
 Center     Atomic      Atomic             Coordinates (Angstroms)
 Number     Number       Type             X           Y           Z
 ---------------------------------------------------------------------
      1          7           0        1.208226   -1.296472   -0.106934
      2          1           0        2.178120   -1.508176    0.064584
      3          6           0        0.687750   -0.069829    0.023690
      4          1           0       -2.305951    1.112373   -0.124352
      5          6           0        1.528789    1.164626   -0.001006
      6          6           0       -0.777123   -0.061754    0.145369
      7          1           0        0.972230    2.010998    0.400579
      8          1           0        2.465495    1.045078    0.555930
      9          1           0        1.781152    1.394806   -1.044866
     10          8           0       -1.474054   -1.128309   -0.014676
     11          1           0        0.531397   -2.044517   -0.245053
     12          8           0       -1.334045    1.225656   -0.137151
     13          1           0       -0.251729    0.087705    1.348012
 ---------------------------------------------------------------------

 SCF Done:  E(RB3LYP) =  -323.557089249     A.U. after    1 cycles

 The electronic state is 1-A.
 Alpha  occ. eigenvalues --  -19.14543 -19.07264 -14.38103 -10.29877 -10.28639
 Alpha  occ. eigenvalues --  -10.20803  -1.05139  -0.97851  -0.94476  -0.78899
 Alpha  occ. eigenvalues --   -0.70546  -0.60203  -0.56841  -0.50953  -0.47619
 Alpha  occ. eigenvalues --   -0.44628  -0.42952  -0.41757  -0.40619  -0.34817
 Alpha  occ. eigenvalues --   -0.34370  -0.27543  -0.23244  -0.20586
 Alpha virt. eigenvalues --   -0.02897   0.05963   0.08446   0.09704   0.11941
 Alpha virt. eigenvalues --    0.13561   0.15334   0.16526   0.21591   0.23581
 Alpha virt. eigenvalues --    0.28475   0.33357   0.37460   0.52395   0.54430

 Mulliken charges:
               1
     1  N   -0.700209
     2  H    0.329653
     3  C    0.296269
     4  H    0.377671
     5  C   -0.439423
     6  C    0.294961
     7  H    0.203265
     8  H    0.148611
     9  H    0.184704
    10  O   -0.541079
    11  H    0.361856
    12  O   -0.593517
    13  H    0.077237
 Sum of Mulliken charges =   0.00000

 Dipole moment (field-independent basis, Debye):
    X=              4.5662    Y=              0.4669    Z=              0.3165  Tot=              4.6009
 Quadrupole moment (field-independent basis, Debye-Ang):
   XX=            -31.0623   YY=            -36.6807   ZZ=            -37.6835
   XY=             -6.8233   XZ=              0.1580   YZ=              0.3338

  Exact polarizability:  63.405  -1.625  50.398  -2.603   2.539  33.322
 Approx polarizability:  95.687  -0.372  76.489  -7.801   7.721  51.605

 ******    1 imaginary frequencies (negative Signs) ******

                      1                      2                      3
                      A                      A                      A
 Frequencies --   -863.3330               156.6320               191.2011
 Red. masses --      1.8686                 1.1685                 3.8196
 Frc consts  --      0.8206                 0.0169                 0.0823
 IR Inten    --    671.0582                 0.0886                 1.6858

                      4                      5                      6
                      A                      A                      A
 Frequencies --    243.1434               327.3644               386.7844
 Red. masses --      3.3742                 3.1497                 1.1661
 Frc consts  --      0.1175                 0.1989                 0.1028
 IR Inten    --      5.3084                24.6999               142.8126

                      7                      8                      9
                      A                      A                      A
 Frequencies --    429.1074               527.8335               548.2520
 Red. masses --      2.4398                 3.1572                 3.1745
 Frc consts  --      0.2647                 0.5183                 0.5622
 IR Inten    --     17.3345                50.3985                24.7520

                     10                     11                     12
                      A                      A                      A
 Frequencies --    614.2809               710.2717               789.8845
 Red. masses --      1.3728                 2.8437                 1.3569
 Frc consts  --      0.3052                 0.8452                 0.4988
 IR Inten    --    114.2071                55.7953               118.4694

                     13                     14                     15
                      A                      A                      A
 Frequencies --    910.7192              1042.0573              1054.2221
 Red. masses --      2.4836                 1.9076                 1.5967
 Frc consts  --      1.2137                 1.2205                 1.0455
 IR Inten    --     52.0148                97.5564                32.1568

                     16                     17                     18
                      A                      A                      A
 Frequencies --   1093.9488              1102.8937              1171.5246
 Red. masses --      1.5420                 1.4695                 1.1062
 Frc consts  --      1.0873                 1.0532                 0.8945
 IR Inten    --    125.4082                 0.0388                41.0571

                     19                     20                     21
                      A                      A                      A
 Frequencies --   1302.1359              1395.9946              1461.9466
 Red. masses --      1.9198                 3.1350                 1.1929
 Frc consts  --      1.9178                 3.5996                 1.5022
 IR Inten    --     18.3549               142.2628                13.2735

                     22                     23                     24
                      A                      A                      A
 Frequencies --   1497.8444              1512.5280              1529.6962
 Red. masses --      1.6106                 1.4799                 1.3064
 Frc consts  --      2.1290                 1.9947                 1.8011
 IR Inten    --     56.2287               101.2270                20.0934

                     25                     26                     27
                      A                      A                      A
 Frequencies --   1570.2029              1633.5806              1679.6324
 Red. masses --      1.6464                 1.5973                 1.3516
 Frc consts  --      2.3916                 2.5114                 2.2466
 IR Inten    --    164.3740                97.3325               135.5447

                     28                     29                     30
                      A                      A                      A
 Frequencies --   3043.9486              3102.6032              3188.7714
 Red. masses --      1.0405                 1.0984                 1.0948
 Frc consts  --      5.6800                 6.2298                 6.5590
 IR Inten    --     21.1028                16.6822                 1.1846

                     31                     32                     33
                      A                      A                      A
 Frequencies --   3500.9325              3658.2210              3700.0447
 Red. masses --      1.0519                 1.0648                 1.0948
 Frc consts  --      7.5963                 8.3958                 8.8311
 IR Inten    --     50.3674                38.4895                50.7963

 - Thermochemistry -
 -------------------
 Temperature   298.150 Kelvin.  Pressure   1.00000 Atm.
 Atom     1 has atomic number  7 and mass  14.00307

 Molecular mass:    89.04768 amu.
 Principal axes and moments of inertia in atomic units:
                           1         2         3
     Eigenvalues --   369.08979 533.08527 872.18780
           X            0.99999   0.00407  -0.00059
           Y           -0.00407   0.99999   0.00349
           Z            0.00061  -0.00348   0.99999
 This molecule is an asymmetric top.
 Rotational symmetry number  1.
 Rotational temperatures (Kelvin)      0.23467     0.16248     0.09931
 Rotational constants (GHZ):           4.88971     3.38546     2.06921
    1 imaginary frequencies ignored.
 Zero-point vibrational energy     269627.5 (Joules/Mol)
                                   64.44253 (Kcal/Mol)
 Warning -- explicit consideration of   9 degrees of freedom as
           vibrations may cause significant error
 Vibrational temperatures:    225.36   275.10   349.83   471.00   556.50
          (Kelvin)            617.39   759.43   788.81   883.81  1021.92
                             1136.47  1310.32  1499.29  1516.79  1573.95
                             1586.82  1685.56  1873.48  2008.52  2103.41
                             2155.06  2176.19  2200.89  2259.17  2350.36
                             2416.61  4379.56  4463.95  4587.93  5037.05
                             5263.36  5323.53

 Zero-point correction=                           0.102696 (Hartree/Particle)
 Thermal correction to Energy=                    0.109189
 Thermal correction to Enthalpy=                  0.110133
 Thermal correction to Gibbs Free Energy=         0.072884
 Sum of electronic and zero-point Energies=           -323.454394
 Sum of electronic and thermal Energies=              -323.447900
 Sum of electronic and thermal Enthalpies=            -323.446956
 Sum of electronic and thermal Free Energies=         -323.484205

                     E (Thermal)             CV                S
                      KCal/Mol        Cal/Mol-Kelvin    Cal/Mol-Kelvin
 Total                   68.517             23.447             78.397
 Electronic               0.000              0.000              0.000
 Translational            0.889              2.981             39.372
 Rotational               0.889              2.981             26.642
 Vibrational             66.740             17.485             12.382
 Vibration     1          0.620              1.895              2.590
 Vibration     2          0.634              1.852              2.216
 Vibration     3          0.659              1.774              1.780
 Vibration     4          0.711              1.621              1.273
 Vibration     5          0.755              1.498              1.013
 Vibration     6          0.790              1.407              0.862
 Vibration     7          0.883              1.188              0.592
 Vibration     8          0.903              1.144              0.548
 Vibration     9          0.974              1.002              0.426

 Optimization completed.
    -- Stationary point found.
 Normal termination of Gaussian 09 at Thu Apr 14 10:54:19 2016.
