 Gaussian 09, Revision D.01,
 Gaussian 09:  ES64L-G09RevD.01 24-Apr-2013

 ------------------------------------------------
 #p opt=(calcfc,ts) freq rb3lyp/6-31g iop(1/11=1)
 ------------------------------------------------

 -------------------------
 Ala-S-opt-freq-tsa3-6-31g
 -------------------------
 Symbolic Z-matrix:
 Charge =  0 Multiplicity = 1

 SCF Done:  E(RB3LYP) =  -323.429497227     A.U. after   16 cycles
 SCF Done:  E(RB3LYP) =  -323.428707368     A.U. after   14 cycles
 SCF Done:  E(RB3LYP) =  -323.429435881     A.U. after   14 cycles
 SCF Done:  E(RB3LYP) =  -323.435172137     A.U. after   14 cycles
 SCF Done:  E(RB3LYP) =  -323.445763919     A.U. after   15 cycles
 SCF Done:  E(RB3LYP) =  -323.456269713     A.U. after   13 cycles
 SCF Done:  E(RB3LYP) =  -323.465585799     A.U. after   14 cycles
 SCF Done:  E(RB3LYP) =  -323.473951620     A.U. after   14 cycles
 SCF Done:  E(RB3LYP) =  -323.481898870     A.U. after   14 cycles
 SCF Done:  E(RB3LYP) =  -323.489514893     A.U. after   14 cycles
 SCF Done:  E(RB3LYP) =  -323.513148118     A.U. after   13 cycles
 SCF Done:  E(RB3LYP) =  -323.513207199     A.U. after   13 cycles
 SCF Done:  E(RB3LYP) =  -323.513216993     A.U. after   13 cycles
 SCF Done:  E(RB3LYP) =  -323.512950415     A.U. after   14 cycles
 SCF Done:  E(RB3LYP) =  -323.513156647     A.U. after   14 cycles
 SCF Done:  E(RB3LYP) =  -323.513001687     A.U. after   13 cycles
 SCF Done:  E(RB3LYP) =  -323.513212275     A.U. after   13 cycles
 SCF Done:  E(RB3LYP) =  -323.513214539     A.U. after   13 cycles
 SCF Done:  E(RB3LYP) =  -323.513219078     A.U. after   12 cycles
 Optimization completed.
    -- Stationary point found.
 Normal termination of Gaussian 09 at Thu Apr 14 09:12:00 2016.

 ----------------------------------------------------------------------
 #P Geom=AllCheck Guess=TCheck SCRF=Check Test GenChk RB3LYP/6-31G Freq
 ----------------------------------------------------------------------

 Structure from the checkpoint file:  "Ala-S-opt-freq-tsa3-6-31g.chk"
 -------------------------
 Ala-S-opt-freq-tsa3-6-31g
 -------------------------
 Charge =  0 Multiplicity = 1

                         Standard orientation:
 ---------------------------------------------------------------------
 Center     Atomic      Atomic             Coordinates (Angstroms)
 Number     Number       Type             X           Y           Z
 ---------------------------------------------------------------------
      1          7           0        1.194962    1.333835    0.027864
      2          1           0        2.177815    1.511985   -0.093346
      3          6           0        0.684647    0.070791    0.007972
      4          1           0       -0.926617   -0.851399   -1.043117
      5          6           0        1.618574   -1.099134    0.020859
      6          6           0       -0.697042   -0.103373   -0.115631
      7          1           0        2.229295   -1.083423    0.933090
      8          1           0        1.044205   -2.027007    0.010251
      9          1           0        2.307027   -1.093475   -0.836120
     10          8           0       -1.449468    1.094441    0.012674
     11          1           0        0.556572    2.111096    0.109440
     12          8           0       -1.426782   -1.338574    0.122221
     13          1           0       -2.380102    0.838731    0.166398
 ---------------------------------------------------------------------

 SCF Done:  E(RB3LYP) =  -323.513219078     A.U. after    1 cycles

 The electronic state is 1-A.
 Alpha  occ. eigenvalues --  -19.15323 -19.10441 -14.36130 -10.26936 -10.25110
 Alpha  occ. eigenvalues --  -10.19313  -1.04982  -0.94696  -0.93890  -0.76846
 Alpha  occ. eigenvalues --   -0.69418  -0.57949  -0.54547  -0.52483  -0.48014
 Alpha  occ. eigenvalues --   -0.44127  -0.41638  -0.41042  -0.40124  -0.35522
 Alpha  occ. eigenvalues --   -0.32321  -0.29944  -0.24479  -0.17177
 Alpha virt. eigenvalues --   -0.02987   0.06559   0.09623   0.09941   0.13023
 Alpha virt. eigenvalues --    0.13724   0.17141   0.17842   0.20713   0.21792
 Alpha virt. eigenvalues --    0.24238   0.37091   0.38934   0.54234   0.55028

 Mulliken charges:
               1
     1  N   -0.755783
     2  H    0.323112
     3  C    0.416732
     4  H    0.312758
     5  C   -0.495080
     6  C    0.125890
     7  H    0.165305
     8  H    0.198698
     9  H    0.151916
    10  O   -0.611836
    11  H    0.357763
    12  O   -0.573147
    13  H    0.383673
 Sum of Mulliken charges =   0.00000

 Dipole moment (field-independent basis, Debye):
    X=              3.3263    Y=              2.2924    Z=             -0.8952  Tot=              4.1377
 Quadrupole moment (field-independent basis, Debye-Ang):
   XX=            -30.1817   YY=            -37.6502   ZZ=            -36.7982
   XY=             -2.0888   XZ=              0.2332   YZ=              1.5663

  Exact polarizability:  71.959   9.968  53.334   0.800   2.245  27.520
 Approx polarizability: 137.156  48.388  97.482   3.499   4.342  37.817

 ******    1 imaginary frequencies (negative Signs) ******

                      1                      2                      3
                      A                      A                      A
 Frequencies --  -1438.5351               120.5487               158.1040
 Red. masses --      1.1834                 1.0701                 4.2114
 Frc consts  --      1.4429                 0.0092                 0.0620
 IR Inten    --   1314.0999                 0.2668                 3.7143

                      4                      5                      6
                      A                      A                      A
 Frequencies --    240.9860               300.2540               323.6702
 Red. masses --      4.0584                 1.1529                 3.0407
 Frc consts  --      0.1389                 0.0612                 0.1877
 IR Inten    --      4.7702               159.1725                19.5090

                      7                      8                      9
                      A                      A                      A
 Frequencies --    385.2616               432.3566               469.7168
 Red. masses --      2.4712                 1.6209                 2.1717
 Frc consts  --      0.2161                 0.1785                 0.2823
 IR Inten    --     14.2034                90.7179                57.5117

                     10                     11                     12
                      A                      A                      A
 Frequencies --    540.2113               598.2835               660.1482
 Red. masses --      5.1599                 1.6313                 2.3335
 Frc consts  --      0.8872                 0.3440                 0.5991
 IR Inten    --     10.9528               171.7233                53.4849

                     13                     14                     15
                      A                      A                      A
 Frequencies --    700.7149               904.9998               960.1838
 Red. masses --      3.4474                 1.2615                 2.3061
 Frc consts  --      0.9973                 0.6087                 1.2527
 IR Inten    --     39.6199                 1.2297               101.1297

                     16                     17                     18
                      A                      A                      A
 Frequencies --   1047.7922              1095.2428              1097.7128
 Red. masses --      1.3731                 1.9851                 1.4739
 Frc consts  --      0.8882                 1.4030                 1.0464
 IR Inten    --      3.1603                54.4218                 7.7299

                     19                     20                     21
                      A                      A                      A
 Frequencies --   1130.8288              1326.6635              1444.7905
 Red. masses --      2.8857                 1.6050                 2.7938
 Frc consts  --      2.1742                 1.6644                 3.4361
 IR Inten    --    260.0266                71.9391                39.8931

                     22                     23                     24
                      A                      A                      A
 Frequencies --   1458.5930              1518.0048              1536.5053
 Red. masses --      1.5090                 1.0910                 1.0492
 Frc consts  --      1.8915                 1.4812                 1.4595
 IR Inten    --     18.6551                11.9765                11.3559

                     25                     26                     27
                      A                      A                      A
 Frequencies --   1655.4526              1693.7308              2379.0579
 Red. masses --      2.7615                 1.3678                 1.0749
 Frc consts  --      4.4589                 2.3119                 3.5844
 IR Inten    --      2.3346               153.4791                81.9238

                     28                     29                     30
                      A                      A                      A
 Frequencies --   3028.1584              3082.7137              3169.2828
 Red. masses --      1.0417                 1.0958                 1.0949
 Frc consts  --      5.6278                 6.1352                 6.4795
 IR Inten    --     39.9927                19.4925                 1.4272

                     31                     32                     33
                      A                      A                      A
 Frequencies --   3607.9250              3672.7011              3743.8959
 Red. masses --      1.0448                 1.0650                 1.1036
 Frc consts  --      8.0129                 8.4637                 9.1139
 IR Inten    --     72.3396                54.6192                41.1098

 - Thermochemistry -
 -------------------
 Temperature   298.150 Kelvin.  Pressure   1.00000 Atm.
 Atom     1 has atomic number  7 and mass  14.00307

 Molecular mass:    89.04768 amu.
 Principal axes and moments of inertia in atomic units:
                           1         2         3
     Eigenvalues --   375.05305 554.71648 907.42676
           X            0.99711  -0.07587   0.00339
           Y            0.07583   0.99707   0.00993
           Z           -0.00414  -0.00964   0.99994
 This molecule is an asymmetric top.
 Rotational symmetry number  1.
 Rotational temperatures (Kelvin)      0.23094     0.15614     0.09545
 Rotational constants (GHZ):           4.81196     3.25345     1.98886
    1 imaginary frequencies ignored.
 Zero-point vibrational energy     266076.3 (Joules/Mol)
                                   63.59377 (Kcal/Mol)
 Warning -- explicit consideration of  10 degrees of freedom as
           vibrations may cause significant error
 Vibrational temperatures:    173.44   227.48   346.72   432.00   465.69
          (Kelvin)            554.30   622.06   675.82   777.24   860.80
                              949.80  1008.17  1302.09  1381.49  1507.54
                             1575.81  1579.36  1627.01  1908.77  2078.73
                             2098.59  2184.07  2210.69  2381.82  2436.90
                             3422.93  4356.84  4435.33  4559.89  5190.99
                             5284.19  5386.62

 Zero-point correction=                           0.101343 (Hartree/Particle)
 Thermal correction to Energy=                    0.108496
 Thermal correction to Enthalpy=                  0.109440
 Thermal correction to Gibbs Free Energy=         0.070881
 Sum of electronic and zero-point Energies=           -323.411876
 Sum of electronic and thermal Energies=              -323.404723
 Sum of electronic and thermal Enthalpies=            -323.403779
 Sum of electronic and thermal Free Energies=         -323.442338

                     E (Thermal)             CV                S
                      KCal/Mol        Cal/Mol-Kelvin    Cal/Mol-Kelvin
 Total                   68.082             25.614             81.154
 Electronic               0.000              0.000              0.000
 Translational            0.889              2.981             39.372
 Rotational               0.889              2.981             26.737
 Vibrational             66.305             19.652             15.045
 Vibration     1          0.609              1.932              3.092
 Vibration     2          0.621              1.894              2.572
 Vibration     3          0.658              1.778              1.796
 Vibration     4          0.693              1.673              1.415
 Vibration     5          0.708              1.628              1.291
 Vibration     6          0.754              1.502              1.018
 Vibration     7          0.793              1.400              0.851
 Vibration     8          0.827              1.317              0.738
 Vibration     9          0.895              1.161              0.565
 Vibration    10          0.956              1.035              0.453

 Normal termination of Gaussian 09 at Thu Apr 14 09:13:31 2016.
