 Gaussian 09, Revision D.01,
 Gaussian 09:  ES64L-G09RevD.01 24-Apr-2013

 -------------------------------
 # freq rb3lyp/6-31g iop(1/11=1)
 -------------------------------

 -------------------------
 Ala-S-opt-freq-tsb1-6-31g
 -------------------------
 Symbolic Z-matrix:
 Charge =  0 Multiplicity = 1

                         Standard orientation:
 ---------------------------------------------------------------------
 Center     Atomic      Atomic             Coordinates (Angstroms)
 Number     Number       Type             X           Y           Z
 ---------------------------------------------------------------------
      1          7           0       -1.431363   -1.056250   -0.429850
      2          1           0       -1.224160   -1.590255    0.408720
      3          6           0       -0.660732    0.182260   -0.447289
      4          1           0        0.039966   -1.346408   -0.461433
      5          6           0       -1.208787    1.313779    0.452528
      6          6           0        0.760196   -0.135156   -0.012746
      7          1           0       -1.235510    0.994705    1.498055
      8          1           0       -0.600258    2.218318    0.373535
      9          1           0       -2.227370    1.562802    0.143341
     10          8           0        1.075859   -1.032610    0.727343
     11          1           0       -2.426701   -0.866166   -0.455779
     12          8           0        1.652565    0.749876   -0.514556
     13          1           0        2.522118    0.517333   -0.154743
 ---------------------------------------------------------------------

 SCF Done:  E(RB3LYP) =  -323.370629280     A.U. after   23 cycles

 The electronic state is 1-A.
 Alpha  occ. eigenvalues --  -19.19489 -19.19101 -14.37808 -10.32655 -10.17726
 Alpha  occ. eigenvalues --  -10.17060  -1.16424  -1.06613  -0.94657  -0.74293
 Alpha  occ. eigenvalues --   -0.67947  -0.61389  -0.55345  -0.50734  -0.50371
 Alpha  occ. eigenvalues --   -0.48201  -0.41506  -0.40618  -0.39850  -0.37357
 Alpha  occ. eigenvalues --   -0.34489  -0.32344  -0.30004  -0.14472
 Alpha virt. eigenvalues --   -0.08825   0.01549   0.06993   0.09087   0.12112
 Alpha virt. eigenvalues --    0.14612   0.17694   0.18376   0.22749   0.25039
 Alpha virt. eigenvalues --    0.27267   0.30915   0.38419   0.52019   0.54610

 Mulliken charges:
               1
     1  N   -0.765607
     2  H    0.291057
     3  C    0.095156
     4  H    0.424120
     5  C   -0.446787
     6  C    0.185075
     7  H    0.103635
     8  H    0.165302
     9  H    0.127884
    10  O   -0.397870
    11  H    0.352094
    12  O   -0.498729
    13  H    0.364670
 Sum of Mulliken charges =   0.00000

 Dipole moment (field-independent basis, Debye):
    X=             -0.6247    Y=             -1.1822    Z=              1.4933  Tot=              2.0045
 Quadrupole moment (field-independent basis, Debye-Ang):
   XX=            -26.7993   YY=            -38.0386   ZZ=            -42.4639
   XY=              2.7646   XZ=             -1.3935   YZ=              2.6415

  Exact polarizability:  65.894  -0.529  47.788   4.386  -3.524  34.932
 Approx polarizability: 109.309  -5.657  69.563  22.014 -13.552  59.518

 ******    4 imaginary frequencies (negative Signs) ******

                      1                      2                      3
                      A                      A                      A
 Frequencies --  -1884.6974             -1498.4686              -427.2936
 Red. masses --      1.1250                 1.1008                 3.9613
 Frc consts  --      2.3543                 1.4563                 0.4261
 IR Inten    --    627.4526               306.1664               111.2176

                      4                      5                      6
                      A                      A                      A
 Frequencies --   -190.4010                49.2691               102.6304
 Red. masses --      2.7265                 1.1778                 2.1551
 Frc consts  --      0.0582                 0.0017                 0.0134
 IR Inten    --     27.0572                 4.8662                29.1267

                      7                      8                      9
                      A                      A                      A
 Frequencies --    272.3282               325.1894               464.8063
 Red. masses --      2.1819                 1.6093                 3.0391
 Frc consts  --      0.0953                 0.1003                 0.3868
 IR Inten    --     13.3094               104.9250                29.4081

                     10                     11                     12
                      A                      A                      A
 Frequencies --    508.6778               576.0767               670.2613
 Red. masses --      4.8408                 3.0404                 4.0953
 Frc consts  --      0.7380                 0.5945                 1.0840
 IR Inten    --     15.1098               154.8348                64.8653

                     13                     14                     15
                      A                      A                      A
 Frequencies --    688.7346               889.1048               915.4616
 Red. masses --      1.2427                 2.6841                 1.4861
 Frc consts  --      0.3473                 1.2501                 0.7338
 IR Inten    --     41.5252                84.1165               117.1036

                     16                     17                     18
                      A                      A                      A
 Frequencies --    997.5917              1036.2461              1082.0518
 Red. masses --      1.4469                 1.3636                 1.9200
 Frc consts  --      0.8484                 0.8627                 1.3245
 IR Inten    --    393.0909                63.8307                54.4246

                     19                     20                     21
                      A                      A                      A
 Frequencies --   1168.4398              1224.9909              1246.6305
 Red. masses --      1.8072                 2.0113                 2.3943
 Frc consts  --      1.4536                 1.7783                 2.1923
 IR Inten    --    177.1016                20.7944                18.2446

                     22                     23                     24
                      A                      A                      A
 Frequencies --   1390.3841              1442.9532              1516.0826
 Red. masses --      1.4639                 1.4980                 1.0578
 Frc consts  --      1.6673                 1.8377                 1.4326
 IR Inten    --     56.8617                57.1045                20.4650

                     25                     26                     27
                      A                      A                      A
 Frequencies --   1527.9492              1746.3470              1936.8924
 Red. masses --      1.0668                 1.0694                 7.7173
 Frc consts  --      1.4674                 1.9215                17.0580
 IR Inten    --      5.3386                24.6088               254.7702

                     28                     29                     30
                      A                      A                      A
 Frequencies --   3034.1987              3103.5240              3154.6173
 Red. masses --      1.0372                 1.0945                 1.0987
 Frc consts  --      5.6262                 6.2114                 6.4423
 IR Inten    --    108.9396                57.5690                17.8365

                     31                     32                     33
                      A                      A                      A
 Frequencies --   3370.0128              3605.3453              3756.5302
 Red. masses --      1.0569                 1.0777                 1.0629
 Frc consts  --      7.0723                 8.2532                 8.8373
 IR Inten    --     95.6685                68.0116                25.8550

 - Thermochemistry -
 -------------------
 Temperature   298.150 Kelvin.  Pressure   1.00000 Atm.
 Atom     1 has atomic number  7 and mass  14.00307

 Molecular mass:    89.04768 amu.
 Principal axes and moments of inertia in atomic units:
                           1         2         3
     Eigenvalues --   356.77777 585.95278 778.67154
           X            0.99975  -0.01098  -0.01947
           Y            0.01199   0.99854   0.05264
           Z            0.01886  -0.05286   0.99842
 This molecule is an asymmetric top.
 Rotational symmetry number  1.
 Rotational temperatures (Kelvin)      0.24277     0.14782     0.11123
 Rotational constants (GHZ):           5.05845     3.08001     2.31772
    4 imaginary frequencies ignored.
 Zero-point vibrational energy     250039.4 (Joules/Mol)
                                   59.76086 (Kcal/Mol)
 Warning -- explicit consideration of   7 degrees of freedom as
           vibrations may cause significant error
 Vibrational temperatures:     70.89   147.66   391.82   467.87   668.75
          (Kelvin)            731.87   828.84   964.36   990.93  1279.22
                             1317.14  1435.31  1490.93  1556.83  1681.12
                             1762.49  1793.62  2000.45  2076.09  2181.30
                             2198.38  2512.60  2786.75  4365.53  4465.27
                             4538.79  4848.69  5187.28  5404.80

 Zero-point correction=                           0.095235 (Hartree/Particle)
 Thermal correction to Energy=                    0.101641
 Thermal correction to Enthalpy=                  0.102585
 Thermal correction to Gibbs Free Energy=         0.064422
 Sum of electronic and zero-point Energies=           -323.275394
 Sum of electronic and thermal Energies=              -323.268988
 Sum of electronic and thermal Enthalpies=            -323.268044
 Sum of electronic and thermal Free Energies=         -323.306207

                     E (Thermal)             CV                S
                      KCal/Mol        Cal/Mol-Kelvin    Cal/Mol-Kelvin
 Total                   63.781             21.603             80.321
 Electronic               0.000              0.000              0.000
 Translational            0.889              2.981             39.372
 Rotational               0.889              2.981             26.590
 Vibrational             62.003             15.641             14.359
 Vibration     1          0.595              1.978              4.847
 Vibration     2          0.605              1.947              3.404
 Vibration     3          0.675              1.724              1.581
 Vibration     4          0.709              1.625              1.284
 Vibration     5          0.822              1.328              0.752
 Vibration     6          0.864              1.231              0.637
 Vibration     7          0.932              1.083              0.493

 Normal termination of Gaussian 09 at Tue Apr 12 16:33:20 2016.
