 Gaussian 09, Revision D.01,
 Gaussian 09:  ES64L-G09RevD.01 24-Apr-2013

 -------------------------------------------
 # opt b3lyp/6-311++g(d,p) geom=connectivity
 -------------------------------------------

 -----------------------
 Asp-S-opt-6-311++g(d,p)
 -----------------------
 Symbolic Z-matrix:
 Charge =  0 Multiplicity = 1

 SCF Done:  E(RB3LYP) =  -512.478689848     A.U. after   14 cycles
 SCF Done:  E(RB3LYP) =  -512.484001815     A.U. after   12 cycles
 SCF Done:  E(RB3LYP) =  -512.484180845     A.U. after   11 cycles
 SCF Done:  E(RB3LYP) =  -512.483615992     A.U. after   12 cycles
 SCF Done:  E(RB3LYP) =  -512.484272100     A.U. after    8 cycles
 SCF Done:  E(RB3LYP) =  -512.484314658     A.U. after   11 cycles
 SCF Done:  E(RB3LYP) =  -512.484320760     A.U. after   11 cycles
 SCF Done:  E(RB3LYP) =  -512.484327573     A.U. after   10 cycles
 SCF Done:  E(RB3LYP) =  -512.484340490     A.U. after   10 cycles
 SCF Done:  E(RB3LYP) =  -512.484345685     A.U. after   10 cycles
 SCF Done:  E(RB3LYP) =  -512.484346966     A.U. after    9 cycles
 SCF Done:  E(RB3LYP) =  -512.484347470     A.U. after    9 cycles
 SCF Done:  E(RB3LYP) =  -512.484347786     A.U. after    9 cycles
 SCF Done:  E(RB3LYP) =  -512.484347962     A.U. after    8 cycles
 SCF Done:  E(RB3LYP) =  -512.484348050     A.U. after    8 cycles
 SCF Done:  E(RB3LYP) =  -512.484348130     A.U. after    8 cycles
 SCF Done:  E(RB3LYP) =  -512.484348311     A.U. after    9 cycles
 SCF Done:  E(RB3LYP) =  -512.484348415     A.U. after    8 cycles
 Optimization completed.
    -- Stationary point found.

                         Standard orientation:
 ---------------------------------------------------------------------
 Center     Atomic      Atomic             Coordinates (Angstroms)
 Number     Number       Type             X           Y           Z
 ---------------------------------------------------------------------
      1          7           0        1.628190    1.810012    0.073149
      2          1           0        2.052123    1.757482   -0.848988
      3          6           0        0.740268    0.678764    0.292504
      4          1           0        0.434163    0.676730    1.343374
      5          6           0       -0.543203    0.833445   -0.548806
      6          6           0        1.407317   -0.676057    0.021458
      7          1           0       -0.770327    1.903723   -0.582763
      8          1           0       -0.408329    0.499044   -1.579406
      9          6           0       -1.752790    0.158073    0.059177
     10          8           0        2.549412   -0.828610   -0.331122
     11          8           0       -1.974325    0.049499    1.237980
     12          1           0        2.397017    1.787340    0.734927
     13          8           0        0.557241   -1.710074    0.219336
     14          1           0        1.040816   -2.528766    0.030037
     15          8           0       -2.615904   -0.271535   -0.891542
     16          1           0       -3.383746   -0.645228   -0.432439
 ---------------------------------------------------------------------

 The electronic state is 1-A.
 Alpha  occ. eigenvalues --  -19.19016 -19.18621 -19.13567 -19.12861 -14.31259
 Alpha  occ. eigenvalues --  -10.32261 -10.32171 -10.23813 -10.20663  -1.13268
 Alpha  occ. eigenvalues --   -1.12731  -1.04402  -1.03863  -0.91502  -0.79693
 Alpha  occ. eigenvalues --   -0.71499  -0.64269  -0.60223  -0.54408  -0.52333
 Alpha  occ. eigenvalues --   -0.50991  -0.50537  -0.48545  -0.47945  -0.46298
 Alpha  occ. eigenvalues --   -0.44514  -0.43194  -0.40608  -0.39747  -0.38092
 Alpha  occ. eigenvalues --   -0.34845  -0.34111  -0.30488  -0.29932  -0.27100
 Alpha virt. eigenvalues --   -0.02760  -0.02018  -0.00805  -0.00500  -0.00049
 Alpha virt. eigenvalues --    0.01313   0.02911   0.03851   0.05031   0.06290
 Alpha virt. eigenvalues --    0.06812   0.07682   0.08574   0.08828   0.09371

 Mulliken charges:
               1
     1  N   -0.363928
     2  H    0.251627
     3  C   -0.303937
     4  H    0.284346
     5  C   -0.114943
     6  C   -0.060021
     7  H    0.224080
     8  H    0.228180
     9  C   -0.151648
    10  O   -0.257898
    11  O   -0.262539
    12  H    0.250278
    13  O   -0.159067
    14  H    0.298748
    15  O   -0.140369
    16  H    0.277092
 Sum of Mulliken charges =   0.00000

 Dipole moment (field-independent basis, Debye):
    X=             -0.5760    Y=             -0.8686    Z=             -1.1477  Tot=              1.5503
 Quadrupole moment (field-independent basis, Debye-Ang):
   XX=            -53.3003   YY=            -50.1069   ZZ=            -55.4741
   XY=              2.4192   XZ=              4.6127   YZ=             -0.7915

 Normal termination of Gaussian 09 at Mon Mar 28 15:31:18 2016.
