 Gaussian 09, Revision D.01,
 Gaussian 09:  ES64L-G09RevD.01 24-Apr-2013

 ------------------------------------------------------------------
 #p opt=(calcfc,ts) freq rb3lyp/6-31g geom=connectivity iop(1/11=1)
 ------------------------------------------------------------------

 -------------------------
 Ala-S-opt-freq-tsa3-6-31g
 -------------------------
 Symbolic Z-matrix:
 Charge =  0 Multiplicity = 1

 SCF Done:  E(RB3LYP) =  -323.350298945     A.U. after   17 cycles
 SCF Done:  E(RB3LYP) =  -323.361303401     A.U. after   17 cycles
 SCF Done:  E(RB3LYP) =  -323.415628449     A.U. after   15 cycles
 SCF Done:  E(RB3LYP) =  -323.449714004     A.U. after   14 cycles
 SCF Done:  E(RB3LYP) =  -323.451839350     A.U. after   17 cycles
 SCF Done:  E(RB3LYP) =  -323.472425943     A.U. after   15 cycles
 SCF Done:  E(RB3LYP) =  -323.485205597     A.U. after   14 cycles
 SCF Done:  E(RB3LYP) =  -323.480439242     A.U. after   17 cycles
 SCF Done:  E(RB3LYP) =  -323.482048989     A.U. after   15 cycles
 SCF Done:  E(RB3LYP) =  -323.485566630     A.U. after   15 cycles
 SCF Done:  E(RB3LYP) =  -323.513532793     A.U. after   13 cycles
 SCF Done:  E(RB3LYP) =  -323.513534940     A.U. after   12 cycles
 SCF Done:  E(RB3LYP) =  -323.513535535     A.U. after    9 cycles
 SCF Done:  E(RB3LYP) =  -323.513535725     A.U. after   11 cycles
 SCF Done:  E(RB3LYP) =  -323.513535957     A.U. after    8 cycles
 SCF Done:  E(RB3LYP) =  -323.513528877     A.U. after   12 cycles
 SCF Done:  E(RB3LYP) =  -323.513536086     A.U. after   14 cycles
 SCF Done:  E(RB3LYP) =  -323.513536106     A.U. after    9 cycles
 SCF Done:  E(RB3LYP) =  -323.513536110     A.U. after    7 cycles
 Optimization completed.
    -- Stationary point found.
 Normal termination of Gaussian 09 at Tue Apr 12 17:04:20 2016.

 ----------------------------------------------------------------------
 #P Geom=AllCheck Guess=TCheck SCRF=Check Test GenChk RB3LYP/6-31G Freq
 ----------------------------------------------------------------------

 Structure from the checkpoint file:  "Ala-S-opt-freq-tsa3-6-31g.chk"
 -------------------------
 Ala-S-opt-freq-tsa3-6-31g
 -------------------------
 Charge =  0 Multiplicity = 1

                         Standard orientation:
 ---------------------------------------------------------------------
 Center     Atomic      Atomic             Coordinates (Angstroms)
 Number     Number       Type             X           Y           Z
 ---------------------------------------------------------------------
      1          7           0        1.151564   -1.348105   -0.104659
      2          1           0        2.128568   -1.572622   -0.023818
      3          6           0        0.681564   -0.077274    0.010624
      4          1           0       -2.230871    1.245115   -0.106166
      5          6           0        1.637056    1.073429    0.050756
      6          6           0       -0.701489    0.071012    0.140186
      7          1           0        2.150269    1.175283   -0.915092
      8          1           0        1.102541    2.002438    0.249863
      9          1           0        2.409444    0.935434    0.820355
     10          8           0       -1.576344   -1.100711   -0.022252
     11          1           0        0.466509   -2.079413   -0.250420
     12          8           0       -1.258697    1.335092   -0.147649
     13          1           0       -1.109864   -0.547545    1.107697
 ---------------------------------------------------------------------

 SCF Done:  E(RB3LYP) =  -323.513536110     A.U. after    1 cycles

 The electronic state is 1-A.
 Alpha  occ. eigenvalues --  -19.15038 -19.10884 -14.35988 -10.26591 -10.25124
 Alpha  occ. eigenvalues --  -10.19420  -1.04751  -0.96074  -0.92667  -0.76981
 Alpha  occ. eigenvalues --   -0.68787  -0.58544  -0.55205  -0.50695  -0.48126
 Alpha  occ. eigenvalues --   -0.44149  -0.42497  -0.41294  -0.39661  -0.34797
 Alpha  occ. eigenvalues --   -0.32650  -0.29405  -0.25035  -0.17349
 Alpha virt. eigenvalues --   -0.03378   0.07293   0.08762   0.10880   0.12630
 Alpha virt. eigenvalues --    0.14461   0.16323   0.17481   0.20359   0.23357
 Alpha virt. eigenvalues --    0.24962   0.34933   0.38431   0.53677   0.55189

 Mulliken charges:
               1
     1  N   -0.755321
     2  H    0.321699
     3  C    0.419005
     4  H    0.379782
     5  C   -0.473706
     6  C    0.087234
     7  H    0.168618
     8  H    0.199422
     9  H    0.148960
    10  O   -0.579051
    11  H    0.351909
    12  O   -0.588418
    13  H    0.319869
 Sum of Mulliken charges =   0.00000

 Dipole moment (field-independent basis, Debye):
    X=              3.3535    Y=             -0.0948    Z=              1.0398  Tot=              3.5123
 Quadrupole moment (field-independent basis, Debye-Ang):
   XX=            -31.0682   YY=            -36.5774   ZZ=            -36.6993
   XY=             -6.2401   XZ=             -1.2509   YZ=              0.1537

  Exact polarizability:  73.231   0.879  49.673  -2.925  -0.090  28.081
 Approx polarizability: 143.441  11.091  74.267  -8.564   0.403  38.641

 ******    1 imaginary frequencies (negative Signs) ******

                      1                      2                      3
                      A                      A                      A
 Frequencies --  -1482.9736                84.7938               159.1498
 Red. masses --      1.1861                 1.0455                 4.4055
 Frc consts  --      1.5369                 0.0044                 0.0657
 IR Inten    --   1107.1766                 1.5160                12.1289

                      4                      5                      6
                      A                      A                      A
 Frequencies --    224.5312               245.2538               317.8331
 Red. masses --      4.3092                 1.3974                 2.0852
 Frc consts  --      0.1280                 0.0495                 0.1241
 IR Inten    --      3.2483                84.0953                55.9499

                      7                      8                      9
                      A                      A                      A
 Frequencies --    383.8518               446.5601               476.5055
 Red. masses --      2.9635                 1.9290                 1.7466
 Frc consts  --      0.2573                 0.2266                 0.2337
 IR Inten    --     22.7659               102.0802                69.0961

                     10                     11                     12
                      A                      A                      A
 Frequencies --    547.8205               615.0465               681.5950
 Red. masses --      4.3067                 2.0140                 2.4145
 Frc consts  --      0.7615                 0.4489                 0.6609
 IR Inten    --     13.7296               124.4641                55.1511

                     13                     14                     15
                      A                      A                      A
 Frequencies --    726.5450               926.4198               979.8951
 Red. masses --      2.4682                 2.8716                 1.1428
 Frc consts  --      0.7676                 1.4521                 0.6465
 IR Inten    --     58.1805                61.8856                26.2164

                     16                     17                     18
                      A                      A                      A
 Frequencies --   1050.9336              1092.6351              1099.3414
 Red. masses --      1.3389                 1.6291                 1.6320
 Frc consts  --      0.8713                 1.1459                 1.1620
 IR Inten    --      4.7191                19.9244                38.5396

                     19                     20                     21
                      A                      A                      A
 Frequencies --   1164.9907              1325.3069              1456.9021
 Red. masses --      3.0509                 1.6553                 1.3910
 Frc consts  --      2.4396                 1.7130                 1.7396
 IR Inten    --    288.0186                29.5607                19.7740

                     22                     23                     24
                      A                      A                      A
 Frequencies --   1463.5368              1519.8237              1531.7468
 Red. masses --      2.8633                 1.0849                 1.0550
 Frc consts  --      3.6135                 1.4764                 1.4584
 IR Inten    --     25.8972                12.6290                12.3613

                     25                     26                     27
                      A                      A                      A
 Frequencies --   1644.9295              1682.6614              2363.0326
 Red. masses --      2.0056                 1.7863                 1.0755
 Frc consts  --      3.1973                 2.9798                 3.5383
 IR Inten    --     22.4409               132.4624                88.7012

                     28                     29                     30
                      A                      A                      A
 Frequencies --   3029.3916              3080.4098              3181.0878
 Red. masses --      1.0415                 1.0971                 1.0938
 Frc consts  --      5.6312                 6.1335                 6.5211
 IR Inten    --     39.1405                19.7948                 1.9090

                     31                     32                     33
                      A                      A                      A
 Frequencies --   3567.3427              3670.3122              3735.5761
 Red. masses --      1.0481                 1.0651                 1.0996
 Frc consts  --      7.8588                 8.4537                 9.0408
 IR Inten    --     43.2419                47.6578                45.6325

 - Thermochemistry -
 -------------------
 Temperature   298.150 Kelvin.  Pressure   1.00000 Atm.
 Atom     1 has atomic number  7 and mass  14.00307

 Molecular mass:    89.04768 amu.
 Principal axes and moments of inertia in atomic units:
                           1         2         3
     Eigenvalues --   378.41686 548.08978 900.35407
           X            0.99991   0.01191  -0.00561
           Y           -0.01191   0.99993   0.00019
           Z            0.00561  -0.00012   0.99998
 This molecule is an asymmetric top.
 Rotational symmetry number  1.
 Rotational temperatures (Kelvin)      0.22888     0.15803     0.09620
 Rotational constants (GHZ):           4.76919     3.29278     2.00448
    1 imaginary frequencies ignored.
 Zero-point vibrational energy     266024.1 (Joules/Mol)
                                   63.58129 (Kcal/Mol)
 Warning -- explicit consideration of  10 degrees of freedom as
           vibrations may cause significant error
 Vibrational temperatures:    122.00   228.98   323.05   352.87   457.29
          (Kelvin)            552.28   642.50   685.58   788.19   884.91
                              980.66  1045.33  1332.91  1409.85  1512.06
                             1572.06  1581.71  1676.16  1906.82  2096.15
                             2105.70  2186.68  2203.84  2366.68  2420.97
                             3399.87  4358.61  4432.02  4576.87  5132.60
                             5280.75  5374.65

 Zero-point correction=                           0.101323 (Hartree/Particle)
 Thermal correction to Energy=                    0.108587
 Thermal correction to Enthalpy=                  0.109531
 Thermal correction to Gibbs Free Energy=         0.070506
 Sum of electronic and zero-point Energies=           -323.412213
 Sum of electronic and thermal Energies=              -323.404949
 Sum of electronic and thermal Enthalpies=            -323.404005
 Sum of electronic and thermal Free Energies=         -323.443030

                     E (Thermal)             CV                S
                      KCal/Mol        Cal/Mol-Kelvin    Cal/Mol-Kelvin
 Total                   68.139             25.509             82.134
 Electronic               0.000              0.000              0.000
 Translational            0.889              2.981             39.372
 Rotational               0.889              2.981             26.726
 Vibrational             66.362             19.547             16.036
 Vibration     1          0.601              1.960              3.777
 Vibration     2          0.621              1.892              2.560
 Vibration     3          0.649              1.804              1.922
 Vibration     4          0.660              1.771              1.764
 Vibration     5          0.704              1.640              1.321
 Vibration     6          0.753              1.505              1.024
 Vibration     7          0.806              1.368              0.806
 Vibration     8          0.833              1.302              0.720
 Vibration     9          0.903              1.144              0.549
 Vibration    10          0.975              1.000              0.424

 Optimization completed.
    -- Stationary point found.
 Normal termination of Gaussian 09 at Tue Apr 12 17:06:53 2016.
