 Gaussian 09, Revision D.01,
 Gaussian 09:  ES64L-G09RevD.01 24-Apr-2013

 -----------------------
 # opt freq rb3lyp/6-31g
 -----------------------

 ------------------------
 Ala-S-opt-freq-pb1-6-31g
 ------------------------
 Symbolic Z-matrix:
 Charge =  0 Multiplicity = 1

 SCF Done:  E(RB3LYP) =  -323.517453956     A.U. after   17 cycles
 SCF Done:  E(RB3LYP) =  -323.553907957     A.U. after   15 cycles
 SCF Done:  E(RB3LYP) =  -323.561775956     A.U. after   18 cycles
 SCF Done:  E(RB3LYP) =  -323.568404469     A.U. after   14 cycles
 SCF Done:  E(RB3LYP) =  -323.571255369     A.U. after   15 cycles
 SCF Done:  E(RB3LYP) =  -323.574943685     A.U. after   16 cycles
 SCF Done:  E(RB3LYP) =  -323.575630757     A.U. after   14 cycles
 SCF Done:  E(RB3LYP) =  -323.577379948     A.U. after   13 cycles
 SCF Done:  E(RB3LYP) =  -323.578096349     A.U. after   12 cycles
 SCF Done:  E(RB3LYP) =  -323.578842763     A.U. after   13 cycles
 SCF Done:  E(RB3LYP) =  -323.602931440     A.U. after   11 cycles
 SCF Done:  E(RB3LYP) =  -323.602942777     A.U. after   12 cycles
 SCF Done:  E(RB3LYP) =  -323.602947907     A.U. after   10 cycles
 SCF Done:  E(RB3LYP) =  -323.602949276     A.U. after    9 cycles
 SCF Done:  E(RB3LYP) =  -323.602949515     A.U. after    8 cycles
 SCF Done:  E(RB3LYP) =  -323.602949800     A.U. after    8 cycles
 SCF Done:  E(RB3LYP) =  -323.602950072     A.U. after    8 cycles
 SCF Done:  E(RB3LYP) =  -323.602950135     A.U. after    8 cycles
 SCF Done:  E(RB3LYP) =  -323.602950132     A.U. after    8 cycles
 Optimization completed.
    -- Stationary point found.
 Normal termination of Gaussian 09 at Sun Apr 10 16:02:51 2016.

 -----------------------------------------------------------------
 #N Geom=AllCheck Guess=TCheck SCRF=Check GenChk RB3LYP/6-31G Freq
 -----------------------------------------------------------------

 Structure from the checkpoint file:  "Ala-S-opt-freq-pb1-6-31g.chk"
 ------------------------
 Ala-S-opt-freq-pb1-6-31g
 ------------------------
 Charge =  0 Multiplicity = 1

                         Standard orientation:
 ---------------------------------------------------------------------
 Center     Atomic      Atomic             Coordinates (Angstroms)
 Number     Number       Type             X           Y           Z
 ---------------------------------------------------------------------
      1          7           0       -0.794434    1.460025   -0.347937
      2          1           0        1.111517    1.592433   -0.119025
      3          6           0       -0.716790    0.242846    0.055367
      4          1           0        0.737099   -0.614306    1.439677
      5          6           0       -1.823577   -0.762861    0.172331
      6          6           0        0.695054   -0.232595    0.414887
      7          1           0       -2.780513   -0.355816   -0.167660
      8          1           0       -1.571228   -1.649548   -0.418892
      9          1           0       -1.933585   -1.093214    1.213452
     10          8           0        1.624957    0.819788    0.242924
     11          1           0       -1.729018    1.781857   -0.620775
     12          8           0        1.021568   -1.362394   -0.444017
     13          1           0        1.626447   -1.025071   -1.137982
 ---------------------------------------------------------------------

 SCF Done:  E(RB3LYP) =  -323.602950132     A.U. after    1 cycles

 The electronic state is 1-A.
 Alpha  occ. eigenvalues --  -19.14289 -19.14076 -14.34668 -10.28977 -10.26092
 Alpha  occ. eigenvalues --  -10.19946  -1.06304  -0.99206  -0.93547  -0.76112
 Alpha  occ. eigenvalues --   -0.69104  -0.59615  -0.52937  -0.48706  -0.48182
 Alpha  occ. eigenvalues --   -0.47516  -0.43291  -0.42126  -0.36351  -0.33949
 Alpha  occ. eigenvalues --   -0.32740  -0.29709  -0.28410  -0.26302
 Alpha virt. eigenvalues --   -0.02474   0.07445   0.09222   0.11425   0.12408
 Alpha virt. eigenvalues --    0.15050   0.16209   0.16725   0.21196   0.22402
 Alpha virt. eigenvalues --    0.24566   0.28954   0.40501   0.52788   0.53861

 Mulliken charges:
               1
     1  N   -0.540018
     2  H    0.390393
     3  C    0.221836
     4  H    0.159103
     5  C   -0.450570
     6  C    0.266505
     7  H    0.143863
     8  H    0.201357
     9  H    0.169095
    10  O   -0.611312
    11  H    0.271656
    12  O   -0.587807
    13  H    0.365899
 Sum of Mulliken charges =   0.00000

 Dipole moment (field-independent basis, Debye):
    X=             -3.2659    Y=              0.2059    Z=             -0.6173  Tot=              3.3301
 Quadrupole moment (field-independent basis, Debye-Ang):
   XX=            -34.9485   YY=            -39.8004   ZZ=            -33.8199
   XY=             -1.2266   XZ=             -2.3111   YZ=             -1.2585

  Exact polarizability:  45.900  -0.737  50.809  -0.459  -4.913  33.344
 Approx polarizability:  56.165  -1.231  80.202  -0.204  -9.844  45.118

                      1                      2                      3
                      A                      A                      A
 Frequencies --     84.8833               126.0004               148.3533
 Red. masses --      3.2649                 1.2894                 1.0708
 Frc consts  --      0.0139                 0.0121                 0.0139
 IR Inten    --      7.2960               104.4625                24.1741

                      4                      5                      6
                      A                      A                      A
 Frequencies --    253.1537               327.0185               410.4164
 Red. masses --      3.3144                 3.3303                 3.7735
 Frc consts  --      0.1251                 0.2098                 0.3745
 IR Inten    --      7.4167                 8.7661                 5.7343

                      7                      8                      9
                      A                      A                      A
 Frequencies --    477.5260               568.7328               620.6675
 Red. masses --      3.4725                 3.4593                 2.1265
 Frc consts  --      0.4665                 0.6593                 0.4827
 IR Inten    --     43.3490                 4.4355                45.0195

                     10                     11                     12
                      A                      A                      A
 Frequencies --    678.8484               817.4594               940.4507
 Red. masses --      1.3517                 2.1603                 1.8607
 Frc consts  --      0.3670                 0.8505                 0.9696
 IR Inten    --     59.4927                 0.8843                29.5060

                     13                     14                     15
                      A                      A                      A
 Frequencies --    967.2943              1003.2488              1078.2537
 Red. masses --      2.5744                 2.4379                 3.8232
 Frc consts  --      1.4192                 1.4457                 2.6189
 IR Inten    --    207.0105                22.8551               131.1715

                     16                     17                     18
                      A                      A                      A
 Frequencies --   1100.0488              1108.7544              1277.2039
 Red. masses --      1.3517                 1.5782                 1.1973
 Frc consts  --      0.9637                 1.1431                 1.1508
 IR Inten    --     60.1318                19.5927                25.8367

                     19                     20                     21
                      A                      A                      A
 Frequencies --   1296.2626              1377.9650              1415.2796
 Red. masses --      1.5863                 1.3470                 1.4660
 Frc consts  --      1.5705                 1.5070                 1.7300
 IR Inten    --     46.0195                69.9127                20.3374

                     22                     23                     24
                      A                      A                      A
 Frequencies --   1448.4618              1469.6063              1511.1728
 Red. masses --      1.2779                 1.3050                 1.0491
 Frc consts  --      1.5797                 1.6606                 1.4116
 IR Inten    --     15.6464               187.9247                12.7491

                     25                     26                     27
                      A                      A                      A
 Frequencies --   1527.6399              1729.4004              3047.2622
 Red. masses --      1.0745                 7.2704                 1.0372
 Frc consts  --      1.4774                12.8116                 5.6744
 IR Inten    --     30.2527                39.0012                 5.9837

                     28                     29                     30
                      A                      A                      A
 Frequencies --   3084.2776              3118.4749              3147.2227
 Red. masses --      1.0854                 1.0950                 1.1016
 Frc consts  --      6.0837                 6.2739                 6.4286
 IR Inten    --     45.1589                11.7351                11.2776

                     31                     32                     33
                      A                      A                      A
 Frequencies --   3357.0121              3441.5299              3630.3104
 Red. masses --      1.0628                 1.0768                 1.0650
 Frc consts  --      7.0571                 7.5141                 8.2696
 IR Inten    --    109.2109                 3.3974                22.7445

 - Thermochemistry -
 -------------------
 Temperature   298.150 Kelvin.  Pressure   1.00000 Atm.
 Atom     1 has atomic number  7 and mass  14.00307

 Molecular mass:    89.04768 amu.
 Principal axes and moments of inertia in atomic units:
                           1         2         3
     Eigenvalues --   369.60677 552.56057 824.36089
           X            0.99896   0.04485  -0.00881
           Y           -0.04502   0.99877  -0.02093
           Z            0.00786   0.02130   0.99974
 This molecule is an asymmetric top.
 Rotational symmetry number  1.
 Rotational temperatures (Kelvin)      0.23434     0.15675     0.10507
 Rotational constants (GHZ):           4.88287     3.26614     2.18926
 Zero-point vibrational energy     278671.2 (Joules/Mol)
                                   66.60402 (Kcal/Mol)
 Warning -- explicit consideration of   9 degrees of freedom as
           vibrations may cause significant error
 Vibrational temperatures:    122.13   181.29   213.45   364.23   470.51
          (Kelvin)            590.50   687.05   818.28   893.00   976.71
                             1176.14  1353.10  1391.72  1443.45  1551.36
                             1582.72  1595.25  1837.61  1865.03  1982.58
                             2036.27  2084.01  2114.43  2174.24  2197.93
                             2488.22  4384.33  4437.58  4486.78  4528.15
                             4829.99  4951.59  5223.20

 Zero-point correction=                           0.106140 (Hartree/Particle)
 Thermal correction to Energy=                    0.113263
 Thermal correction to Enthalpy=                  0.114207
 Thermal correction to Gibbs Free Energy=         0.075152
 Sum of electronic and zero-point Energies=           -323.496810
 Sum of electronic and thermal Energies=              -323.489687
 Sum of electronic and thermal Enthalpies=            -323.488743
 Sum of electronic and thermal Free Energies=         -323.527799

                     E (Thermal)             CV                S
                      KCal/Mol        Cal/Mol-Kelvin    Cal/Mol-Kelvin
 Total                   71.074             24.416             82.200
 Electronic               0.000              0.000              0.000
 Translational            0.889              2.981             39.372
 Rotational               0.889              2.981             26.623
 Vibrational             69.296             18.455             16.204
 Vibration     1          0.601              1.960              3.775
 Vibration     2          0.611              1.927              3.006
 Vibration     3          0.618              1.904              2.693
 Vibration     4          0.664              1.757              1.709
 Vibration     5          0.711              1.621              1.275
 Vibration     6          0.775              1.448              0.925
 Vibration     7          0.834              1.300              0.717
 Vibration     8          0.925              1.099              0.507
 Vibration     9          0.981              0.988              0.415

 Optimization completed.
    -- Stationary point found.
 Normal termination of Gaussian 09 at Sun Apr 10 16:04:26 2016.
