 Gaussian 09, Revision D.01,
 Gaussian 09:  ES64L-G09RevD.01 24-Apr-2013

 ------------------------------------------------
 #p opt=(calcfc,ts) freq rb3lyp/6-31g iop(1/11=1)
 ------------------------------------------------

 -------------------------
 Ala-S-opt-freq-tsa3-6-31g
 -------------------------
 Symbolic Z-matrix:
 Charge =  0 Multiplicity = 1

 SCF Done:  E(RB3LYP) =  -323.449600778     A.U. after   19 cycles
 SCF Done:  E(RB3LYP) =  -323.470802104     A.U. after   15 cycles
 SCF Done:  E(RB3LYP) =  -323.489535594     A.U. after   15 cycles
 SCF Done:  E(RB3LYP) =  -323.502149125     A.U. after   15 cycles
 SCF Done:  E(RB3LYP) =  -323.504895987     A.U. after   15 cycles
 SCF Done:  E(RB3LYP) =  -323.504368813     A.U. after   15 cycles
 SCF Done:  E(RB3LYP) =  -323.507032927     A.U. after   15 cycles
 SCF Done:  E(RB3LYP) =  -323.514631253     A.U. after   14 cycles
 SCF Done:  E(RB3LYP) =  -323.511996792     A.U. after   16 cycles
 SCF Done:  E(RB3LYP) =  -323.511059997     A.U. after   15 cycles
 SCF Done:  E(RB3LYP) =  -323.513505592     A.U. after   13 cycles
 SCF Done:  E(RB3LYP) =  -323.513389062     A.U. after   15 cycles
 SCF Done:  E(RB3LYP) =  -323.513521023     A.U. after   13 cycles
 SCF Done:  E(RB3LYP) =  -323.513510647     A.U. after   14 cycles
 SCF Done:  E(RB3LYP) =  -323.513535890     A.U. after   13 cycles
 SCF Done:  E(RB3LYP) =  -323.513536060     A.U. after    9 cycles
 SCF Done:  E(RB3LYP) =  -323.513536111     A.U. after    8 cycles
 SCF Done:  E(RB3LYP) =  -323.513534783     A.U. after   12 cycles
 SCF Done:  E(RB3LYP) =  -323.513536112     A.U. after   11 cycles
 Optimization completed.
    -- Stationary point found.
 Normal termination of Gaussian 09 at Thu Apr 14 00:52:05 2016.

 ----------------------------------------------------------------------
 #P Geom=AllCheck Guess=TCheck SCRF=Check Test GenChk RB3LYP/6-31G Freq
 ----------------------------------------------------------------------

 Structure from the checkpoint file:  "Ala-S-opt-freq-tsa3-6-31g.chk"
 -------------------------
 Ala-S-opt-freq-tsa3-6-31g
 -------------------------
 Charge =  0 Multiplicity = 1

                         Standard orientation:
 ---------------------------------------------------------------------
 Center     Atomic      Atomic             Coordinates (Angstroms)
 Number     Number       Type             X           Y           Z
 ---------------------------------------------------------------------
      1          7           0       -1.151561   -1.348136   -0.104633
      2          1           0       -2.128551   -1.572673   -0.023717
      3          6           0       -0.681568   -0.077296    0.010717
      4          1           0        2.230819    1.245127   -0.106340
      5          6           0       -1.637054    1.073421    0.050692
      6          6           0        0.701487    0.071009    0.140210
      7          1           0       -1.102610    2.002367    0.250287
      8          1           0       -2.149785    1.175537   -0.915385
      9          1           0       -2.409821    0.935254    0.819875
     10          8           0        1.576398   -1.100671   -0.022327
     11          1           0       -0.466498   -2.079420   -0.250460
     12          8           0        1.258636    1.335127   -0.147571
     13          1           0        1.109904   -0.547691    1.107641
 ---------------------------------------------------------------------

 SCF Done:  E(RB3LYP) =  -323.513536112     A.U. after    1 cycles

 The electronic state is 1-A.
 Alpha  occ. eigenvalues --  -19.15038 -19.10886 -14.35987 -10.26591 -10.25123
 Alpha  occ. eigenvalues --  -10.19420  -1.04751  -0.96075  -0.92667  -0.76981
 Alpha  occ. eigenvalues --   -0.68787  -0.58544  -0.55204  -0.50695  -0.48125
 Alpha  occ. eigenvalues --   -0.44150  -0.42497  -0.41294  -0.39661  -0.34797
 Alpha  occ. eigenvalues --   -0.32649  -0.29406  -0.25036  -0.17349
 Alpha virt. eigenvalues --   -0.03378   0.07294   0.08762   0.10880   0.12629
 Alpha virt. eigenvalues --    0.14461   0.16322   0.17483   0.20357   0.23356
 Alpha virt. eigenvalues --    0.24962   0.34934   0.38432   0.53678   0.55189

 Mulliken charges:
               1
     1  N   -0.755329
     2  H    0.321695
     3  C    0.418990
     4  H    0.379784
     5  C   -0.473681
     6  C    0.087239
     7  H    0.199411
     8  H    0.168639
     9  H    0.148937
    10  O   -0.579041
    11  H    0.351902
    12  O   -0.588424
    13  H    0.319880
 Sum of Mulliken charges =   0.00000

 Dipole moment (field-independent basis, Debye):
    X=             -3.3531    Y=             -0.0951    Z=              1.0395  Tot=              3.5118
 Quadrupole moment (field-independent basis, Debye-Ang):
   XX=            -31.0686   YY=            -36.5773   ZZ=            -36.6992
   XY=              6.2395   XZ=              1.2500   YZ=              0.1524

  Exact polarizability:  73.230  -0.878  49.673   2.923  -0.091  28.081
 Approx polarizability: 143.435 -11.086  74.266   8.558   0.404  38.640

 ******    1 imaginary frequencies (negative Signs) ******

                      1                      2                      3
                      A                      A                      A
 Frequencies --  -1483.0804                84.7592               159.1536
 Red. masses --      1.1861                 1.0455                 4.4052
 Frc consts  --      1.5371                 0.0044                 0.0657
 IR Inten    --   1107.2589                 1.5184                12.1346

                      4                      5                      6
                      A                      A                      A
 Frequencies --    224.5313               245.2481               317.8199
 Red. masses --      4.3098                 1.3972                 2.0854
 Frc consts  --      0.1280                 0.0495                 0.1241
 IR Inten    --      3.2390                84.1064                55.9333

                      7                      8                      9
                      A                      A                      A
 Frequencies --    383.8465               446.5218               476.4646
 Red. masses --      2.9629                 1.9275                 1.7481
 Frc consts  --      0.2572                 0.2264                 0.2338
 IR Inten    --     22.7905               102.2163                68.9942

                     10                     11                     12
                      A                      A                      A
 Frequencies --    547.8095               615.0089               681.5794
 Red. masses --      4.3070                 2.0135                 2.4148
 Frc consts  --      0.7615                 0.4487                 0.6609
 IR Inten    --     13.7147               124.5189                55.0972

                     13                     14                     15
                      A                      A                      A
 Frequencies --    726.5128               926.3975               979.8416
 Red. masses --      2.4690                 2.8709                 1.1429
 Frc consts  --      0.7678                 1.4517                 0.6465
 IR Inten    --     58.1708                61.8467                26.2540

                     16                     17                     18
                      A                      A                      A
 Frequencies --   1050.9353              1092.6276              1099.3256
 Red. masses --      1.3389                 1.6292                 1.6319
 Frc consts  --      0.8713                 1.1460                 1.1620
 IR Inten    --      4.7188                19.8998                38.5478

                     19                     20                     21
                      A                      A                      A
 Frequencies --   1164.9854              1325.3017              1456.8987
 Red. masses --      3.0509                 1.6553                 1.3927
 Frc consts  --      2.4396                 1.7130                 1.7417
 IR Inten    --    288.0237                29.5609                19.8319

                     22                     23                     24
                      A                      A                      A
 Frequencies --   1463.5199              1519.8222              1531.7389
 Red. masses --      2.8561                 1.0849                 1.0550
 Frc consts  --      3.6043                 1.4764                 1.4584
 IR Inten    --     25.8479                12.6254                12.3591

                     25                     26                     27
                      A                      A                      A
 Frequencies --   1644.9296              1682.6475              2362.9849
 Red. masses --      2.0055                 1.7862                 1.0755
 Frc consts  --      3.1972                 2.9797                 3.5382
 IR Inten    --     22.4437               132.4291                88.6840

                     28                     29                     30
                      A                      A                      A
 Frequencies --   3029.4072              3080.4216              3181.0807
 Red. masses --      1.0414                 1.0971                 1.0938
 Frc consts  --      5.6312                 6.1336                 6.5211
 IR Inten    --     39.1328                19.8009                 1.9107

                     31                     32                     33
                      A                      A                      A
 Frequencies --   3567.3754              3670.3124              3735.6113
 Red. masses --      1.0481                 1.0651                 1.0996
 Frc consts  --      7.8589                 8.4537                 9.0410
 IR Inten    --     43.2367                47.6643                45.6243

 - Thermochemistry -
 -------------------
 Temperature   298.150 Kelvin.  Pressure   1.00000 Atm.
 Atom     1 has atomic number  7 and mass  14.00307

 Molecular mass:    89.04768 amu.
 Principal axes and moments of inertia in atomic units:
                           1         2         3
     Eigenvalues --   378.42047 548.08757 900.35879
           X            0.99991  -0.01191   0.00561
           Y            0.01191   0.99993   0.00018
           Z           -0.00561  -0.00011   0.99998
 This molecule is an asymmetric top.
 Rotational symmetry number  1.
 Rotational temperatures (Kelvin)      0.22888     0.15803     0.09620
 Rotational constants (GHZ):           4.76914     3.29280     2.00447
    1 imaginary frequencies ignored.
 Zero-point vibrational energy     266022.1 (Joules/Mol)
                                   63.58080 (Kcal/Mol)
 Warning -- explicit consideration of  10 degrees of freedom as
           vibrations may cause significant error
 Vibrational temperatures:    121.95   228.99   323.05   352.86   457.27
          (Kelvin)            552.27   642.44   685.53   788.17   884.86
                              980.64  1045.29  1332.88  1409.77  1512.06
                             1572.05  1581.68  1676.15  1906.81  2096.15
                             2105.68  2186.68  2203.83  2366.68  2420.95
                             3399.80  4358.64  4432.03  4576.86  5132.65
                             5280.75  5374.70

 Zero-point correction=                           0.101322 (Hartree/Particle)
 Thermal correction to Energy=                    0.108586
 Thermal correction to Enthalpy=                  0.109530
 Thermal correction to Gibbs Free Energy=         0.070505
 Sum of electronic and zero-point Energies=           -323.412214
 Sum of electronic and thermal Energies=              -323.404950
 Sum of electronic and thermal Enthalpies=            -323.404006
 Sum of electronic and thermal Free Energies=         -323.443031

                     E (Thermal)             CV                S
                      KCal/Mol        Cal/Mol-Kelvin    Cal/Mol-Kelvin
 Total                   68.139             25.509             82.136
 Electronic               0.000              0.000              0.000
 Translational            0.889              2.981             39.372
 Rotational               0.889              2.981             26.726
 Vibrational             66.361             19.548             16.037
 Vibration     1          0.601              1.960              3.778
 Vibration     2          0.621              1.892              2.560
 Vibration     3          0.649              1.804              1.922
 Vibration     4          0.660              1.771              1.764
 Vibration     5          0.704              1.640              1.321
 Vibration     6          0.753              1.505              1.024
 Vibration     7          0.806              1.369              0.806
 Vibration     8          0.833              1.302              0.720
 Vibration     9          0.903              1.144              0.549
 Vibration    10          0.975              1.000              0.425

 Optimization completed.
    -- Stationary point found.
 Normal termination of Gaussian 09 at Thu Apr 14 00:55:13 2016.
