 Gaussian 09, Revision D.01,
 Gaussian 09:  ES64L-G09RevD.01 24-Apr-2013

 -------------------------------------------
 # opt b3lyp/6-311++g(d,p) geom=connectivity
 -------------------------------------------

 -----------------------
 Ala-R-opt-6-311++g(d,p)
 -----------------------
 Symbolic Z-matrix:
 Charge =  0 Multiplicity = 1

 SCF Done:  E(RB3LYP) =  -323.856079572     A.U. after   13 cycles

 The electronic state is 1-A.
 Alpha  occ. eigenvalues --  -19.18441 -19.12918 -14.30488 -10.31397 -10.22757
 Alpha  occ. eigenvalues --  -10.17601  -1.12533  -1.03701  -0.90537  -0.76426
 Alpha  occ. eigenvalues --   -0.67970  -0.60088  -0.52874  -0.50556  -0.49868
 Alpha  occ. eigenvalues --   -0.46480  -0.44596  -0.42751  -0.39379  -0.38849
 Alpha  occ. eigenvalues --   -0.36950  -0.34163  -0.29831  -0.26140
 Alpha virt. eigenvalues --   -0.01791  -0.01427   0.00114   0.01132   0.01886
 Alpha virt. eigenvalues --    0.04345   0.04552   0.05271   0.06682   0.07215
 Alpha virt. eigenvalues --    0.08471   0.09812   0.10154   0.10584   0.11183

 Mulliken charges:
               1
     1  C   -0.316764
     2  H    0.208265
     3  C    0.030528
     4  O   -0.272551
     5  O   -0.168544
     6  H    0.287412
     7  N   -0.332215
     8  H    0.241590
     9  H    0.245640
    10  C   -0.399114
    11  H    0.181134
    12  H    0.140582
    13  H    0.154038
 Sum of Mulliken charges =   0.00000

 Dipole moment (field-independent basis, Debye):
    X=             -0.7006    Y=              1.0085    Z=             -0.4428  Tot=              1.3054
 Quadrupole moment (field-independent basis, Debye-Ang):
   XX=            -37.0831   YY=            -37.9195   ZZ=            -36.3643
   XY=             -1.6408   XZ=              1.9332   YZ=              2.5772

 Optimization completed.
    -- Stationary point found.

                         Standard orientation:
 ---------------------------------------------------------------------
 Center     Atomic      Atomic             Coordinates (Angstroms)
 Number     Number       Type             X           Y           Z
 ---------------------------------------------------------------------
      1          6           0        0.665450    0.136964   -0.398314
      2          1           0        0.642833    0.492184   -1.433125
      3          6           0       -0.781139   -0.172453   -0.002051
      4          8           0       -1.145273   -1.131754    0.630905
      5          8           0       -1.639205    0.783818   -0.436789
      6          1           0       -2.525382    0.540718   -0.127895
      7          7           0        1.547904   -1.017535   -0.329267
      8          1           0        1.240675   -1.747203   -0.964378
      9          1           0        1.525534   -1.420193    0.603377
     10          6           0        1.203198    1.270285    0.490520
     11          1           0        2.218028    1.517903    0.176463
     12          1           0        0.577309    2.161249    0.419414
     13          1           0        1.236449    0.952799    1.537158
 ---------------------------------------------------------------------

 Normal termination of Gaussian 09 at Mon Mar 28 22:12:36 2016.
