 Gaussian 09, Revision D.01,
 Gaussian 09:  ES64L-G09RevD.01 24-Apr-2013

 ------------------------------------------------
 #p opt=(calcfc,ts) freq rb3lyp/6-31g iop(1/11=1)
 ------------------------------------------------

 -------------------------
 Ala-S-opt-freq-tsa3-6-31g
 -------------------------
 Symbolic Z-matrix:
 Charge =  0 Multiplicity = 1

 SCF Done:  E(RB3LYP) =  -323.304814728     A.U. after   17 cycles
 SCF Done:  E(RB3LYP) =  -323.360937087     A.U. after   14 cycles
 SCF Done:  E(RB3LYP) =  -323.393661999     A.U. after   15 cycles
 SCF Done:  E(RB3LYP) =  -323.429595067     A.U. after   14 cycles
 SCF Done:  E(RB3LYP) =  -323.465111646     A.U. after   13 cycles
 SCF Done:  E(RB3LYP) =  -323.495416908     A.U. after   13 cycles
 SCF Done:  E(RB3LYP) =  -323.517345798     A.U. after   13 cycles
 SCF Done:  E(RB3LYP) =  -323.534114896     A.U. after   13 cycles
 SCF Done:  E(RB3LYP) =  -323.547033117     A.U. after   13 cycles
 SCF Done:  E(RB3LYP) =  -323.555515178     A.U. after   13 cycles
 SCF Done:  E(RB3LYP) =  -323.584302607     A.U. after   14 cycles
 SCF Done:  E(RB3LYP) =  -323.585279054     A.U. after   13 cycles
 SCF Done:  E(RB3LYP) =  -323.585436943     A.U. after   12 cycles
 SCF Done:  E(RB3LYP) =  -323.585456148     A.U. after   11 cycles
 SCF Done:  E(RB3LYP) =  -323.585456271     A.U. after   10 cycles
 SCF Done:  E(RB3LYP) =  -323.585456979     A.U. after    9 cycles
 SCF Done:  E(RB3LYP) =  -323.585456465     A.U. after   11 cycles
 SCF Done:  E(RB3LYP) =  -323.585457705     A.U. after    9 cycles
 SCF Done:  E(RB3LYP) =  -323.585457967     A.U. after    8 cycles
 Optimization completed.
    -- Stationary point found.
 Normal termination of Gaussian 09 at Wed Apr 13 09:09:45 2016.

 ----------------------------------------------------------------------
 #P Geom=AllCheck Guess=TCheck SCRF=Check Test GenChk RB3LYP/6-31G Freq
 ----------------------------------------------------------------------

 Structure from the checkpoint file:  "Ala-S-opt-freq-tsa3-6-31g.chk"
 -------------------------
 Ala-S-opt-freq-tsa3-6-31g
 -------------------------
 Charge =  0 Multiplicity = 1

                         Standard orientation:
 ---------------------------------------------------------------------
 Center     Atomic      Atomic             Coordinates (Angstroms)
 Number     Number       Type             X           Y           Z
 ---------------------------------------------------------------------
      1          7           0        1.348269   -1.317602    0.025967
      2          1           0        1.221808   -1.879737   -0.809143
      3          6           0        0.681972   -0.041797    0.001930
      4          1           0       -1.959290    1.375049   -0.651255
      5          6           0        1.568109    1.173380   -0.023295
      6          6           0       -0.657146    0.037323    0.001106
      7          1           0        2.238351    1.134403   -0.892220
      8          1           0        0.992200    2.101187   -0.053253
      9          1           0        2.212634    1.186505    0.865267
     10          8           0       -1.472990   -1.094274   -0.101323
     11          1           0        1.183407   -1.869801    0.861263
     12          8           0       -1.359029    1.242596    0.113787
     13          1           0       -2.228450   -1.024401    0.519410
 ---------------------------------------------------------------------

 SCF Done:  E(RB3LYP) =  -323.585457967     A.U. after    1 cycles

 The electronic state is 1-A.
 Alpha  occ. eigenvalues --  -19.17465 -19.17393 -14.30006 -10.28338 -10.20755
 Alpha  occ. eigenvalues --  -10.15937  -1.09084  -1.02293  -0.88130  -0.74756
 Alpha  occ. eigenvalues --   -0.67996  -0.57534  -0.56381  -0.49006  -0.48261
 Alpha  occ. eigenvalues --   -0.42977  -0.41298  -0.39108  -0.38282  -0.37114
 Alpha  occ. eigenvalues --   -0.32834  -0.31634  -0.22262  -0.21474
 Alpha virt. eigenvalues --    0.03612   0.04932   0.07755   0.10283   0.14911
 Alpha virt. eigenvalues --    0.17497   0.18524   0.19662   0.21498   0.22044
 Alpha virt. eigenvalues --    0.26886   0.40224   0.46356   0.54408   0.58502

 Mulliken charges:
               1
     1  N   -0.729899
     2  H    0.296206
     3  C    0.219721
     4  H    0.373627
     5  C   -0.430559
     6  C    0.358937
     7  H    0.140532
     8  H    0.149979
     9  H    0.145590
    10  O   -0.591827
    11  H    0.290489
    12  O   -0.595181
    13  H    0.372383
 Sum of Mulliken charges =   0.00000

 Dipole moment (field-independent basis, Debye):
    X=             -2.3329    Y=             -0.3362    Z=             -0.3193  Tot=              2.3785
 Quadrupole moment (field-independent basis, Debye-Ang):
   XX=            -32.9695   YY=            -35.6492   ZZ=            -34.0862
   XY=             -0.0559   XZ=              0.1666   YZ=             -3.9538

  Exact polarizability:  59.987  -0.959  45.734   0.127  -0.996  30.724
 Approx polarizability:  85.835  -3.547  58.722   0.159   0.354  40.833

 ******    1 imaginary frequencies (negative Signs) ******

                      1                      2                      3
                      A                      A                      A
 Frequencies --   -353.7497               151.2958               178.2136
 Red. masses --      1.0668                 1.1738                 2.2881
 Frc consts  --      0.0787                 0.0158                 0.0428
 IR Inten    --     51.0860                37.7132                 9.1114

                      4                      5                      6
                      A                      A                      A
 Frequencies --    222.9119               246.4471               347.9394
 Red. masses --      1.2693                 3.0563                 3.0079
 Frc consts  --      0.0372                 0.1094                 0.2145
 IR Inten    --    140.1289                 5.4094                16.5341

                      7                      8                      9
                      A                      A                      A
 Frequencies --    366.7290               446.4217               515.4659
 Red. masses --      2.8938                 1.1909                 2.9906
 Frc consts  --      0.2293                 0.1398                 0.4682
 IR Inten    --     18.2309               113.9277                81.0538

                     10                     11                     12
                      A                      A                      A
 Frequencies --    553.8304               595.7572               654.3553
 Red. masses --      5.0132                 4.2101                 1.4914
 Frc consts  --      0.9060                 0.8804                 0.3762
 IR Inten    --     24.8729                12.2628               200.4710

                     13                     14                     15
                      A                      A                      A
 Frequencies --    741.1353               984.3155              1063.2111
 Red. masses --      4.5591                 2.6815                 1.2718
 Frc consts  --      1.4754                 1.5307                 0.8470
 IR Inten    --     13.2150                64.1231                16.7108

                     16                     17                     18
                      A                      A                      A
 Frequencies --   1089.4951              1190.3668              1224.9024
 Red. masses --      1.6046                 4.9167                 1.4478
 Frc consts  --      1.1222                 4.1047                 1.2798
 IR Inten    --    146.5315               270.5468                 2.8861

                     19                     20                     21
                      A                      A                      A
 Frequencies --   1246.2908              1269.5427              1304.6092
 Red. masses --      1.3835                 1.5645                 5.4500
 Frc consts  --      1.2661                 1.4856                 5.4652
 IR Inten    --     30.0812                16.5091                 1.5967

                     22                     23                     24
                      A                      A                      A
 Frequencies --   1453.8327              1524.8973              1529.3821
 Red. masses --      1.2399                 1.0520                 1.0516
 Frc consts  --      1.5441                 1.4413                 1.4491
 IR Inten    --      4.8159                 4.6178                 5.6998

                     25                     26                     27
                      A                      A                      A
 Frequencies --   1700.3816              1808.3824              3036.0076
 Red. masses --      1.0890                 7.1721                 1.0379
 Frc consts  --      1.8551                13.8191                 5.6365
 IR Inten    --     23.1666                49.5732                34.6956

                     28                     29                     30
                      A                      A                      A
 Frequencies --   3086.4925              3154.4878              3519.2961
 Red. masses --      1.0976                 1.0970                 1.0446
 Frc consts  --      6.1607                 6.4317                 7.6228
 IR Inten    --     28.2136                17.1359                 0.9021

                     31                     32                     33
                      A                      A                      A
 Frequencies --   3576.0820              3605.2833              3618.6785
 Red. masses --      1.0652                 1.0650                 1.0963
 Frc consts  --      8.0258                 8.1560                 8.4584
 IR Inten    --      6.3651                12.6790                 3.1350

 - Thermochemistry -
 -------------------
 Temperature   298.150 Kelvin.  Pressure   1.00000 Atm.
 Atom     1 has atomic number  7 and mass  14.00307

 Molecular mass:    89.04768 amu.
 Principal axes and moments of inertia in atomic units:
                           1         2         3
     Eigenvalues --   378.05099 559.68357 908.97134
           X            0.99892   0.04638  -0.00021
           Y           -0.04638   0.99879  -0.01637
           Z           -0.00055   0.01636   0.99987
 This molecule is an asymmetric top.
 Rotational symmetry number  1.
 Rotational temperatures (Kelvin)      0.22911     0.15475     0.09529
 Rotational constants (GHZ):           4.77380     3.22457     1.98548
    1 imaginary frequencies ignored.
 Zero-point vibrational energy     275179.6 (Joules/Mol)
                                   65.76951 (Kcal/Mol)
 Warning -- explicit consideration of  10 degrees of freedom as
           vibrations may cause significant error
 Vibrational temperatures:    217.68   256.41   320.72   354.58   500.61
          (Kelvin)            527.64   642.30   741.64   796.84   857.16
                              941.47  1066.33  1416.21  1529.72  1567.54
                             1712.67  1762.36  1793.13  1826.59  1877.04
                             2091.74  2193.98  2200.44  2446.47  2601.86
                             4368.13  4440.77  4538.60  5063.48  5145.18
                             5187.19  5206.46

 Zero-point correction=                           0.104810 (Hartree/Particle)
 Thermal correction to Energy=                    0.111845
 Thermal correction to Enthalpy=                  0.112789
 Thermal correction to Gibbs Free Energy=         0.074498
 Sum of electronic and zero-point Energies=           -323.480648
 Sum of electronic and thermal Energies=              -323.473613
 Sum of electronic and thermal Enthalpies=            -323.472669
 Sum of electronic and thermal Free Energies=         -323.510960

                     E (Thermal)             CV                S
                      KCal/Mol        Cal/Mol-Kelvin    Cal/Mol-Kelvin
 Total                   70.184             25.024             80.590
 Electronic               0.000              0.000              0.000
 Translational            0.889              2.981             39.372
 Rotational               0.889              2.981             26.756
 Vibrational             68.406             19.063             14.462
 Vibration     1          0.619              1.901              2.656
 Vibration     2          0.629              1.869              2.347
 Vibration     3          0.649              1.806              1.935
 Vibration     4          0.661              1.769              1.756
 Vibration     5          0.726              1.579              1.176
 Vibration     6          0.740              1.541              1.093
 Vibration     7          0.806              1.369              0.807
 Vibration     8          0.871              1.216              0.621
 Vibration     9          0.909              1.131              0.536
 Vibration    10          0.954              1.041              0.457

 Normal termination of Gaussian 09 at Wed Apr 13 09:11:02 2016.
