 Gaussian 09, Revision D.01,
 Gaussian 09:  ES64L-G09RevD.01 24-Apr-2013

 -------------------------------------------
 # opt b3lyp/6-311++g(d,p) geom=connectivity
 -------------------------------------------

 -----------------------
 Ser-S-opt-6-311++g(d,p)
 -----------------------
 Symbolic Z-matrix:
 Charge =  0 Multiplicity = 1

 SCF Done:  E(RB3LYP) =  -399.087465567     A.U. after   14 cycles
 SCF Done:  E(RB3LYP) =  -399.091383055     A.U. after   11 cycles
 SCF Done:  E(RB3LYP) =  -399.091382414     A.U. after   11 cycles
 SCF Done:  E(RB3LYP) =  -399.091577634     A.U. after    7 cycles
 SCF Done:  E(RB3LYP) =  -399.091616038     A.U. after   11 cycles
 SCF Done:  E(RB3LYP) =  -399.091850685     A.U. after   11 cycles
 SCF Done:  E(RB3LYP) =  -399.091869266     A.U. after   10 cycles
 SCF Done:  E(RB3LYP) =  -399.091880042     A.U. after   10 cycles
 SCF Done:  E(RB3LYP) =  -399.091884000     A.U. after   11 cycles
 SCF Done:  E(RB3LYP) =  -399.091889449     A.U. after   10 cycles
 SCF Done:  E(RB3LYP) =  -399.091891547     A.U. after   10 cycles
 SCF Done:  E(RB3LYP) =  -399.091891822     A.U. after    9 cycles
 SCF Done:  E(RB3LYP) =  -399.091891977     A.U. after    7 cycles
 Optimization completed.
    -- Stationary point found.

                         Standard orientation:
 ---------------------------------------------------------------------
 Center     Atomic      Atomic             Coordinates (Angstroms)
 Number     Number       Type             X           Y           Z
 ---------------------------------------------------------------------
      1          7           0        0.147315    2.008892   -0.210518
      2          1           0       -0.127551    2.182995    0.752069
      3          6           0        0.258183    0.571425   -0.455174
      4          1           0        0.317890    0.397950   -1.530741
      5          6           0        1.543833    0.060941    0.197514
      6          6           0       -0.935792   -0.205846    0.104704
      7          1           0        2.384630    0.617774   -0.228974
      8          1           0        1.497244    0.258020    1.275850
      9          8           0        1.646386   -1.336396   -0.066085
     10          8           0       -1.305175   -0.140440    1.252340
     11          1           0        2.352460   -1.707351    0.470210
     12          1           0       -0.551991    2.430330   -0.811620
     13          8           0       -1.566790   -0.947053   -0.829575
     14          1           0       -2.296604   -1.409966   -0.388875
 ---------------------------------------------------------------------

 The electronic state is 1-A.
 Alpha  occ. eigenvalues --  -19.18253 -19.13688 -19.12480 -14.31478 -10.31259
 Alpha  occ. eigenvalues --  -10.23065 -10.22606  -1.12327  -1.03927  -1.03346
 Alpha  occ. eigenvalues --   -0.91019  -0.75635  -0.67820  -0.59626  -0.54319
 Alpha  occ. eigenvalues --   -0.53726  -0.49757  -0.49143  -0.46919  -0.45061
 Alpha  occ. eigenvalues --   -0.42538  -0.40930  -0.39580  -0.35322  -0.33617
 Alpha  occ. eigenvalues --   -0.30320  -0.29350  -0.26356
 Alpha virt. eigenvalues --   -0.02039  -0.01414  -0.00329   0.00203   0.01740
 Alpha virt. eigenvalues --    0.03098   0.04687   0.05326   0.06694   0.07428
 Alpha virt. eigenvalues --    0.08537   0.09661   0.09886   0.10074   0.10862

 Mulliken charges:
               1
     1  N   -0.259194
     2  H    0.235678
     3  C   -0.559909
     4  H    0.257897
     5  C   -0.249536
     6  C    0.102667
     7  H    0.182862
     8  H    0.183773
     9  O   -0.264711
    10  O   -0.276819
    11  H    0.260923
    12  H    0.246000
    13  O   -0.136512
    14  H    0.276880
 Sum of Mulliken charges =   0.00000

 Dipole moment (field-independent basis, Debye):
    X=              0.2857    Y=              0.1541    Z=             -0.1949  Tot=              0.3786
 Quadrupole moment (field-independent basis, Debye-Ang):
   XX=            -35.3663   YY=            -41.3171   ZZ=            -45.1882
   XY=             -2.1619   XZ=              5.6288   YZ=             -1.9891

 1\1\GINC-BREEZE\FOpt\RB3LYP\6-311++G(d,p)\C3H7N1O3\SKY\28-Mar-2016\0\\
 # opt b3lyp/6-311++g(d,p) geom=connectivity\\Ser-S-opt-6-311++g(d,p)\\
 0,1\N,-0.1634826565,2.0333297714,0.0957655004\H,0.0853538706,2.1495565
 008,-0.882502814\C,-0.2496077571,0.6129638832,0.4328179104\H,-0.280599
 0951,0.5069427302,1.5183143337\C,-1.5441677941,0.0477047693,-0.1537714
 154\C,0.940248004,-0.1843480346,-0.1072997774\H,-2.3813951274,0.620662
 2025,0.2581323418\H,-1.526664388,0.1769582563,-1.2431776729\O,-1.62203
 7291,-1.3313235159,0.19945316\O,1.2804290516,-0.1871758031,-1.26577204

 Normal termination of Gaussian 09 at Mon Mar 28 04:23:25 2016.
