 Gaussian 09, Revision D.01,
 Gaussian 09:  ES64L-G09RevD.01 24-Apr-2013

 -------------------------------------------
 # opt b3lyp/6-311++g(d,p) geom=connectivity
 -------------------------------------------

 -----------------------
 Val-R-opt-6-311++g(d,p)
 -----------------------
 Symbolic Z-matrix:
 Charge =  0 Multiplicity = 1

 SCF Done:  E(RB3LYP) =  -402.495023901     A.U. after   13 cycles
 SCF Done:  E(RB3LYP) =  -402.498320170     A.U. after   11 cycles
 SCF Done:  E(RB3LYP) =  -402.498477653     A.U. after   11 cycles
 SCF Done:  E(RB3LYP) =  -402.497797786     A.U. after   12 cycles
 SCF Done:  E(RB3LYP) =  -402.498589908     A.U. after    9 cycles
 SCF Done:  E(RB3LYP) =  -402.498635696     A.U. after   11 cycles
 SCF Done:  E(RB3LYP) =  -402.498674424     A.U. after   11 cycles
 SCF Done:  E(RB3LYP) =  -402.498695848     A.U. after   10 cycles
 SCF Done:  E(RB3LYP) =  -402.498702769     A.U. after   10 cycles
 SCF Done:  E(RB3LYP) =  -402.498704038     A.U. after    9 cycles
 SCF Done:  E(RB3LYP) =  -402.498704508     A.U. after    8 cycles
 SCF Done:  E(RB3LYP) =  -402.498704609     A.U. after    7 cycles
 Optimization completed.
    -- Stationary point found.

                         Standard orientation:
 ---------------------------------------------------------------------
 Center     Atomic      Atomic             Coordinates (Angstroms)
 Number     Number       Type             X           Y           Z
 ---------------------------------------------------------------------
      1          6           0       -0.057626    0.458906    0.287427
      2          1           0       -0.004688    0.462781    1.390433
      3          6           0       -1.334293   -0.301337   -0.072376
      4          8           0       -1.434065   -1.267254   -0.781491
      5          8           0       -2.414389    0.276008    0.520816
      6          1           0       -3.198311   -0.214750    0.231147
      7          6           0        1.203346   -0.244198   -0.252560
      8          6           0        2.444514    0.651625   -0.125755
      9          1           0        2.620127    0.948067    0.915344
     10          1           0        3.332292    0.110250   -0.462604
     11          1           0        2.367303    1.553627   -0.736908
     12          7           0       -0.221300    1.815064   -0.266090
     13          1           0       -1.075959    2.234221    0.085265
     14          1           0        0.546731    2.409224    0.024517
     15          1           0        1.029863   -0.446710   -1.314036
     16          6           0        1.440871   -1.578190    0.471589
     17          1           0        0.592281   -2.255329    0.367280
     18          1           0        2.318824   -2.081666    0.058233
     19          1           0        1.627398   -1.416029    1.539400
 ---------------------------------------------------------------------

 The electronic state is 1-A.
 Alpha  occ. eigenvalues --  -19.18332 -19.12849 -14.30842 -10.31634 -10.22406
 Alpha  occ. eigenvalues --  -10.18175 -10.16573 -10.15857  -1.12490  -1.03664
 Alpha  occ. eigenvalues --   -0.90687  -0.80046  -0.72172  -0.68706  -0.63269
 Alpha  occ. eigenvalues --   -0.56305  -0.52667  -0.50447  -0.49394  -0.48012
 Alpha  occ. eigenvalues --   -0.45135  -0.43412  -0.42351  -0.41278  -0.39540
 Alpha  occ. eigenvalues --   -0.38636  -0.35017  -0.34534  -0.34189  -0.33431
 Alpha  occ. eigenvalues --   -0.29627  -0.25795
 Alpha virt. eigenvalues --   -0.02467  -0.01086  -0.00056   0.00753   0.01362
 Alpha virt. eigenvalues --    0.02671   0.03766   0.03922   0.04916   0.05206
 Alpha virt. eigenvalues --    0.06143   0.07185   0.08321   0.09056   0.09198

 Mulliken charges:
               1
     1  C   -0.084809
     2  H    0.207145
     3  C   -0.146483
     4  O   -0.270677
     5  O   -0.196637
     6  H    0.290070
     7  C    0.171635
     8  C   -0.628230
     9  H    0.154249
    10  H    0.145450
    11  H    0.127158
    12  N   -0.307105
    13  H    0.244675
    14  H    0.231481
    15  H    0.221072
    16  C   -0.585681
    17  H    0.163335
    18  H    0.138623
    19  H    0.124726
 Sum of Mulliken charges =   0.00000

 Dipole moment (field-independent basis, Debye):
    X=              0.1451    Y=              1.2726    Z=              1.8860  Tot=              2.2798
 Quadrupole moment (field-independent basis, Debye-Ang):
   XX=            -43.7737   YY=            -51.3533   ZZ=            -53.8049
   XY=             -0.3712   XZ=             -1.4057   YZ=              0.1938

 1\1\GINC-KALI\FOpt\RB3LYP\6-311++G(d,p)\C5H11N1O2\ROOT\28-Mar-2016\0\\
 # opt b3lyp/6-311++g(d,p) geom=connectivity\\Val-R-opt-6-311++g(d,p)\\
 0,1\C,-0.0661487606,0.4630786534,0.2712501852\H,-0.0105483311,0.474434
 7827,1.374073682\C,-1.3303290484,-0.3212964772,-0.0807542398\O,-1.4150
 965293,-1.2930006897,-0.7838906309\O,-2.4187987163,0.240768466,0.51180
 60401\H,-3.1948096565,-0.2652127265,0.2270678444\C,1.2054826748,-0.221
 2734994,-0.2678305569\C,2.4312406416,0.6966574147,-0.1495280036\H,2.60
 4269609,1.002288624,0.8893436915\H,3.3274339791,0.1687494791,-0.485466

 Normal termination of Gaussian 09 at Mon Mar 28 15:43:35 2016.
