 Gaussian 09, Revision D.01,
 Gaussian 09:  ES64L-G09RevD.01 24-Apr-2013

 ------------------------------------------------
 #p opt=(calcfc,ts) freq rb3lyp/6-31g iop(1/11=1)
 ------------------------------------------------

 -------------------------
 Ala-S-opt-freq-tsa3-6-31g
 -------------------------
 Symbolic Z-matrix:
 Charge =  0 Multiplicity = 1

 SCF Done:  E(RB3LYP) =  -323.423417371     A.U. after   20 cycles
 SCF Done:  E(RB3LYP) =  -323.436859813     A.U. after   19 cycles
 SCF Done:  E(RB3LYP) =  -323.449879648     A.U. after   17 cycles
 SCF Done:  E(RB3LYP) =  -323.461905358     A.U. after   16 cycles
 SCF Done:  E(RB3LYP) =  -323.472781573     A.U. after   16 cycles
 SCF Done:  E(RB3LYP) =  -323.482453572     A.U. after   15 cycles
 SCF Done:  E(RB3LYP) =  -323.490387295     A.U. after   14 cycles
 SCF Done:  E(RB3LYP) =  -323.497453236     A.U. after   15 cycles
 SCF Done:  E(RB3LYP) =  -323.502427025     A.U. after   14 cycles
 SCF Done:  E(RB3LYP) =  -323.507073565     A.U. after   14 cycles
 SCF Done:  E(RB3LYP) =  -323.513479832     A.U. after   14 cycles
 SCF Done:  E(RB3LYP) =  -323.513301276     A.U. after   15 cycles
 SCF Done:  E(RB3LYP) =  -323.513500186     A.U. after   13 cycles
 SCF Done:  E(RB3LYP) =  -323.513516773     A.U. after   13 cycles
 SCF Done:  E(RB3LYP) =  -323.513534764     A.U. after   12 cycles
 SCF Done:  E(RB3LYP) =  -323.513532588     A.U. after   12 cycles
 SCF Done:  E(RB3LYP) =  -323.513535875     A.U. after   12 cycles
 SCF Done:  E(RB3LYP) =  -323.513536005     A.U. after    8 cycles
 SCF Done:  E(RB3LYP) =  -323.513536097     A.U. after    8 cycles
 Optimization completed.
    -- Stationary point found.
 Normal termination of Gaussian 09 at Wed Apr 13 10:02:54 2016.

 ----------------------------------------------------------------------
 #P Geom=AllCheck Guess=TCheck SCRF=Check Test GenChk RB3LYP/6-31G Freq
 ----------------------------------------------------------------------

 Structure from the checkpoint file:  "Ala-S-opt-freq-tsa3-6-31g.chk"
 -------------------------
 Ala-S-opt-freq-tsa3-6-31g
 -------------------------
 Charge =  0 Multiplicity = 1

                         Standard orientation:
 ---------------------------------------------------------------------
 Center     Atomic      Atomic             Coordinates (Angstroms)
 Number     Number       Type             X           Y           Z
 ---------------------------------------------------------------------
      1          7           0       -1.151431   -1.348153   -0.104742
      2          1           0       -2.128352   -1.572897   -0.023470
      3          6           0       -0.681592   -0.077276    0.010590
      4          1           0        2.230867    1.245025   -0.106754
      5          6           0       -1.637204    1.073333    0.050757
      6          6           0        0.701473    0.071065    0.140195
      7          1           0       -2.408631    0.936026    0.821451
      8          1           0       -1.102547    2.002590    0.248330
      9          1           0       -2.151630    1.174143   -0.914546
     10          8           0        1.576409   -1.100616   -0.022174
     11          1           0       -0.466270   -2.079335   -0.250655
     12          8           0        1.258679    1.335158   -0.147595
     13          1           0        1.109817   -0.547546    1.107737
 ---------------------------------------------------------------------

 SCF Done:  E(RB3LYP) =  -323.513536097     A.U. after    1 cycles

 The electronic state is 1-A.
 Alpha  occ. eigenvalues --  -19.15038 -19.10886 -14.35987 -10.26591 -10.25123
 Alpha  occ. eigenvalues --  -10.19419  -1.04751  -0.96075  -0.92667  -0.76980
 Alpha  occ. eigenvalues --   -0.68787  -0.58544  -0.55204  -0.50694  -0.48126
 Alpha  occ. eigenvalues --   -0.44149  -0.42498  -0.41295  -0.39661  -0.34796
 Alpha  occ. eigenvalues --   -0.32648  -0.29407  -0.25037  -0.17349
 Alpha virt. eigenvalues --   -0.03378   0.07294   0.08763   0.10880   0.12629
 Alpha virt. eigenvalues --    0.14463   0.16326   0.17477   0.20358   0.23356
 Alpha virt. eigenvalues --    0.24962   0.34932   0.38429   0.53676   0.55187

 Mulliken charges:
               1
     1  N   -0.755322
     2  H    0.321693
     3  C    0.418981
     4  H    0.379789
     5  C   -0.473750
     6  C    0.087271
     7  H    0.149011
     8  H    0.199452
     9  H    0.168572
    10  O   -0.579048
    11  H    0.351907
    12  O   -0.588441
    13  H    0.319883
 Sum of Mulliken charges =   0.00000

 Dipole moment (field-independent basis, Debye):
    X=             -3.3530    Y=             -0.0957    Z=              1.0392  Tot=              3.5117
 Quadrupole moment (field-independent basis, Debye-Ang):
   XX=            -31.0687   YY=            -36.5778   ZZ=            -36.6989
   XY=              6.2388   XZ=              1.2453   YZ=              0.1512

  Exact polarizability:  73.233  -0.878  49.671   2.921  -0.088  28.082
 Approx polarizability: 143.444 -11.087  74.263   8.561   0.407  38.643

 ******    1 imaginary frequencies (negative Signs) ******

                      1                      2                      3
                      A                      A                      A
 Frequencies --  -1483.0879                84.7913               159.1063
 Red. masses --      1.1861                 1.0454                 4.4017
 Frc consts  --      1.5372                 0.0044                 0.0657
 IR Inten    --   1107.4259                 1.5330                12.1970

                      4                      5                      6
                      A                      A                      A
 Frequencies --    224.5648               245.1278               317.7735
 Red. masses --      4.3097                 1.3964                 2.0878
 Frc consts  --      0.1280                 0.0494                 0.1242
 IR Inten    --      3.2321                84.2070                55.7795

                      7                      8                      9
                      A                      A                      A
 Frequencies --    383.8530               446.4914               476.5348
 Red. masses --      2.9633                 1.9307                 1.7457
 Frc consts  --      0.2573                 0.2268                 0.2336
 IR Inten    --     22.8236               101.8340                69.2671

                     10                     11                     12
                      A                      A                      A
 Frequencies --    547.8399               615.0399               681.5873
 Red. masses --      4.3059                 2.0140                 2.4148
 Frc consts  --      0.7614                 0.4489                 0.6610
 IR Inten    --     13.7545               124.5261                55.1407

                     13                     14                     15
                      A                      A                      A
 Frequencies --    726.5384               926.4047               979.9057
 Red. masses --      2.4678                 2.8716                 1.1428
 Frc consts  --      0.7675                 1.4520                 0.6465
 IR Inten    --     58.1708                61.8730                26.2290

                     16                     17                     18
                      A                      A                      A
 Frequencies --   1050.9217              1092.6406              1099.3268
 Red. masses --      1.3390                 1.6296                 1.6310
 Frc consts  --      0.8713                 1.1463                 1.1613
 IR Inten    --      4.7211                20.0096                38.4016

                     19                     20                     21
                      A                      A                      A
 Frequencies --   1164.9884              1325.2883              1456.9020
 Red. masses --      3.0523                 1.6553                 1.3879
 Frc consts  --      2.4407                 1.7129                 1.7357
 IR Inten    --    288.0084                29.5656                19.6745

                     22                     23                     24
                      A                      A                      A
 Frequencies --   1463.5545              1519.8229              1531.7708
 Red. masses --      2.8776                 1.0849                 1.0548
 Frc consts  --      3.6316                 1.4765                 1.4582
 IR Inten    --     26.0113                12.6299                12.3676

                     25                     26                     27
                      A                      A                      A
 Frequencies --   1644.8897              1682.6479              2362.8719
 Red. masses --      2.0081                 1.7840                 1.0755
 Frc consts  --      3.2012                 2.9760                 3.5378
 IR Inten    --     22.3393               132.5225                88.6778

                     28                     29                     30
                      A                      A                      A
 Frequencies --   3029.3828              3080.4264              3181.0862
 Red. masses --      1.0415                 1.0971                 1.0938
 Frc consts  --      5.6313                 6.1335                 6.5211
 IR Inten    --     39.1592                19.7719                 1.9060

                     31                     32                     33
                      A                      A                      A
 Frequencies --   3567.3043              3670.3087              3735.5110
 Red. masses --      1.0481                 1.0651                 1.0996
 Frc consts  --      7.8586                 8.4536                 9.0405
 IR Inten    --     43.2243                47.6744                45.6150

 - Thermochemistry -
 -------------------
 Temperature   298.150 Kelvin.  Pressure   1.00000 Atm.
 Atom     1 has atomic number  7 and mass  14.00307

 Molecular mass:    89.04768 amu.
 Principal axes and moments of inertia in atomic units:
                           1         2         3
     Eigenvalues --   378.41209 548.10862 900.36571
           X            0.99991  -0.01191   0.00559
           Y            0.01191   0.99993   0.00018
           Z           -0.00559  -0.00011   0.99998
 This molecule is an asymmetric top.
 Rotational symmetry number  1.
 Rotational temperatures (Kelvin)      0.22889     0.15802     0.09620
 Rotational constants (GHZ):           4.76925     3.29267     2.00445
    1 imaginary frequencies ignored.
 Zero-point vibrational energy     266020.8 (Joules/Mol)
                                   63.58050 (Kcal/Mol)
 Warning -- explicit consideration of  10 degrees of freedom as
           vibrations may cause significant error
 Vibrational temperatures:    122.00   228.92   323.10   352.68   457.20
          (Kelvin)            552.28   642.40   685.63   788.22   884.90
                              980.65  1045.33  1332.89  1409.86  1512.04
                             1572.06  1581.68  1676.16  1906.79  2096.15
                             2105.73  2186.68  2203.87  2366.63  2420.95
                             3399.64  4358.60  4432.04  4576.87  5132.55
                             5280.75  5374.56

 Zero-point correction=                           0.101322 (Hartree/Particle)
 Thermal correction to Energy=                    0.108586
 Thermal correction to Enthalpy=                  0.109530
 Thermal correction to Gibbs Free Energy=         0.070504
 Sum of electronic and zero-point Energies=           -323.412214
 Sum of electronic and thermal Energies=              -323.404950
 Sum of electronic and thermal Enthalpies=            -323.404006
 Sum of electronic and thermal Free Energies=         -323.443032

                     E (Thermal)             CV                S
                      KCal/Mol        Cal/Mol-Kelvin    Cal/Mol-Kelvin
 Total                   68.139             25.509             82.136
 Electronic               0.000              0.000              0.000
 Translational            0.889              2.981             39.372
 Rotational               0.889              2.981             26.726
 Vibrational             66.361             19.548             16.037
 Vibration     1          0.601              1.960              3.777
 Vibration     2          0.621              1.892              2.560
 Vibration     3          0.649              1.804              1.922
 Vibration     4          0.660              1.771              1.765
 Vibration     5          0.704              1.640              1.322
 Vibration     6          0.753              1.505              1.024
 Vibration     7          0.806              1.369              0.806
 Vibration     8          0.833              1.302              0.719
 Vibration     9          0.903              1.144              0.549
 Vibration    10          0.975              1.000              0.425

 Normal termination of Gaussian 09 at Wed Apr 13 10:04:06 2016.
