 Gaussian 09, Revision D.01,
 Gaussian 09:  ES64L-G09RevD.01 24-Apr-2013

 ------------------------------------------------
 #p opt=(calcfc,ts) freq rb3lyp/6-31g iop(1/11=1)
 ------------------------------------------------

 -------------------------
 Ala-S-opt-freq-tsa3-6-31g
 -------------------------
 Symbolic Z-matrix:
 Charge =  0 Multiplicity = 1

 SCF Done:  E(RB3LYP) =  -323.435312651     A.U. after   16 cycles
 SCF Done:  E(RB3LYP) =  -323.433179162     A.U. after   15 cycles
 SCF Done:  E(RB3LYP) =  -323.426569526     A.U. after   17 cycles
 SCF Done:  E(RB3LYP) =  -323.409538539     A.U. after   16 cycles
 SCF Done:  E(RB3LYP) =  -323.408365530     A.U. after   17 cycles
 SCF Done:  E(RB3LYP) =  -323.404924061     A.U. after   15 cycles
 SCF Done:  E(RB3LYP) =  -323.408663393     A.U. after   16 cycles
 SCF Done:  E(RB3LYP) =  -323.413342400     A.U. after   16 cycles
 SCF Done:  E(RB3LYP) =  -323.385919731     A.U. after   16 cycles
 SCF Done:  E(RB3LYP) =  -323.418442344     A.U. after   15 cycles
 SCF Done:  E(RB3LYP) =  -323.522358621     A.U. after   12 cycles
 SCF Done:  E(RB3LYP) =  -323.522364319     A.U. after   10 cycles
 SCF Done:  E(RB3LYP) =  -323.522367246     A.U. after   10 cycles
 SCF Done:  E(RB3LYP) =  -323.522370068     A.U. after   10 cycles
 SCF Done:  E(RB3LYP) =  -323.522371903     A.U. after    9 cycles
 SCF Done:  E(RB3LYP) =  -323.522373719     A.U. after    9 cycles
 SCF Done:  E(RB3LYP) =  -323.522374829     A.U. after   10 cycles
 SCF Done:  E(RB3LYP) =  -323.522375130     A.U. after    9 cycles
 SCF Done:  E(RB3LYP) =  -323.522375365     A.U. after    9 cycles
 Optimization completed.
    -- Stationary point found.
 Normal termination of Gaussian 09 at Thu Apr 14 11:19:29 2016.

 ----------------------------------------------------------------------
 #P Geom=AllCheck Guess=TCheck SCRF=Check Test GenChk RB3LYP/6-31G Freq
 ----------------------------------------------------------------------

 Structure from the checkpoint file:  "Ala-S-opt-freq-tsa3-6-31g.chk"
 -------------------------
 Ala-S-opt-freq-tsa3-6-31g
 -------------------------
 Charge =  0 Multiplicity = 1

                         Standard orientation:
 ---------------------------------------------------------------------
 Center     Atomic      Atomic             Coordinates (Angstroms)
 Number     Number       Type             X           Y           Z
 ---------------------------------------------------------------------
      1          7           0        1.239736    1.366176    0.089910
      2          1           0        2.182642    1.583344   -0.178576
      3          6           0        0.693207    0.120367   -0.183888
      4          1           0       -0.364328   -1.892798    0.840436
      5          6           0        1.417454   -1.098382   -0.025584
      6          6           0       -0.697086   -0.052390   -0.185218
      7          1           0        2.441430   -1.030161    0.339420
      8          1           0        0.613402   -1.832810    0.955798
      9          1           0        1.256238   -1.887183   -0.756137
     10          8           0       -1.472898    1.082485    0.050525
     11          1           0        0.619524    2.127672    0.312306
     12          8           0       -1.214025   -1.241885   -0.038667
     13          1           0       -2.413135    0.826336    0.130660
 ---------------------------------------------------------------------

 SCF Done:  E(RB3LYP) =  -323.522375365     A.U. after    1 cycles

 The electronic state is 1-A.
 Alpha  occ. eigenvalues --  -19.17719 -19.15534 -14.33200 -10.29273 -10.22911
 Alpha  occ. eigenvalues --  -10.21267  -1.08786  -1.00916  -0.91321  -0.76918
 Alpha  occ. eigenvalues --   -0.68257  -0.57220  -0.54337  -0.52526  -0.49831
 Alpha  occ. eigenvalues --   -0.45207  -0.43022  -0.41495  -0.38887  -0.37420
 Alpha  occ. eigenvalues --   -0.32007  -0.29916  -0.28929  -0.18206
 Alpha virt. eigenvalues --   -0.03409   0.04548   0.07469   0.09805   0.13331
 Alpha virt. eigenvalues --    0.14190   0.17052   0.21331   0.24259   0.27033
 Alpha virt. eigenvalues --    0.28542   0.39293   0.40844   0.54317   0.58523

 Mulliken charges:
               1
     1  N   -0.778810
     2  H    0.310575
     3  C    0.330187
     4  H    0.167196
     5  C   -0.399532
     6  C    0.426203
     7  H    0.148785
     8  H   -0.020710
     9  H    0.200114
    10  O   -0.598252
    11  H    0.334448
    12  O   -0.507073
    13  H    0.386868
 Sum of Mulliken charges =   0.00000

 Dipole moment (field-independent basis, Debye):
    X=              1.6144    Y=              1.4642    Z=              0.0279  Tot=              2.1797
 Quadrupole moment (field-independent basis, Debye-Ang):
   XX=            -29.0365   YY=            -36.8326   ZZ=            -38.7848
   XY=             -1.7090   XZ=             -1.8637   YZ=              0.3690

  Exact polarizability:  64.163  -1.710  64.449   1.080  -5.879  26.585
 Approx polarizability: 104.191  -0.486 113.606   4.702 -16.963  39.315

 ******    1 imaginary frequencies (negative Signs) ******

                      1                      2                      3
                      A                      A                      A
 Frequencies --  -1766.0583               184.9073               260.4315
 Red. masses --      1.1873                 5.3387                 3.5257
 Frc consts  --      2.1818                 0.1075                 0.1409
 IR Inten    --    667.9084                10.2512                10.4073

                      4                      5                      6
                      A                      A                      A
 Frequencies --    301.1036               391.9017               393.5581
 Red. masses --      1.1415                 1.7619                 1.8566
 Frc consts  --      0.0610                 0.1594                 0.1694
 IR Inten    --    116.7283               114.4063                10.8219

                      7                      8                      9
                      A                      A                      A
 Frequencies --    445.5083               482.5358               534.4866
 Red. masses --      1.2511                 1.4205                 3.0442
 Frc consts  --      0.1463                 0.1949                 0.5124
 IR Inten    --     23.6498               242.1039                57.8936

                     10                     11                     12
                      A                      A                      A
 Frequencies --    574.0202               690.7022               770.4836
 Red. masses --      6.0037                 5.0621                 1.5620
 Frc consts  --      1.1655                 1.4229                 0.5463
 IR Inten    --      2.9789                22.6499                 6.8282

                     13                     14                     15
                      A                      A                      A
 Frequencies --    808.6658               845.2561               973.1440
 Red. masses --      4.2774                 1.2197                 1.4141
 Frc consts  --      1.6480                 0.5134                 0.7890
 IR Inten    --     23.9791                74.0734                 7.8921

                     16                     17                     18
                      A                      A                      A
 Frequencies --   1039.1870              1085.0429              1131.1481
 Red. masses --      1.7496                 1.4492                 1.1999
 Frc consts  --      1.1132                 1.0052                 0.9045
 IR Inten    --     41.7799                 3.8160               256.2371

                     19                     20                     21
                      A                      A                      A
 Frequencies --   1139.9029              1300.8957              1325.2274
 Red. masses --      1.3534                 1.6785                 1.1975
 Frc consts  --      1.0361                 1.6736                 1.2391
 IR Inten    --     97.7662                 9.7229                13.8132

                     22                     23                     24
                      A                      A                      A
 Frequencies --   1414.3843              1450.1954              1472.6459
 Red. masses --      1.3827                 2.3894                 1.8356
 Frc consts  --      1.6297                 2.9607                 2.3455
 IR Inten    --     55.1145               201.3905                55.8186

                     25                     26                     27
                      A                      A                      A
 Frequencies --   1536.2959              1642.4844              1695.5263
 Red. masses --      1.9918                 2.5156                 1.1398
 Frc consts  --      2.7698                 3.9985                 1.9305
 IR Inten    --     23.8595                12.9562                89.8805

                     28                     29                     30
                      A                      A                      A
 Frequencies --   1775.6050              3145.6146              3232.3217
 Red. masses --      1.3000                 1.0572                 1.1132
 Frc consts  --      2.4148                 6.1631                 6.8526
 IR Inten    --     52.0429                10.2511                 4.5679

                     31                     32                     33
                      A                      A                      A
 Frequencies --   3635.2784              3668.2107              3766.8393
 Red. masses --      1.0450                 1.0649                 1.1028
 Frc consts  --      8.1363                 8.4426                 9.2194
 IR Inten    --     46.0820                66.3109                31.5396

 - Thermochemistry -
 -------------------
 Temperature   298.150 Kelvin.  Pressure   1.00000 Atm.
 Atom     1 has atomic number  7 and mass  14.00307

 Molecular mass:    89.04768 amu.
 Principal axes and moments of inertia in atomic units:
                           1         2         3
     Eigenvalues --   381.51975 493.17004 850.31235
           X            0.99642  -0.08447  -0.00172
           Y            0.08442   0.99627  -0.01791
           Z            0.00322   0.01771   0.99984
 This molecule is an asymmetric top.
 Rotational symmetry number  1.
 Rotational temperatures (Kelvin)      0.22702     0.17563     0.10186
 Rotational constants (GHZ):           4.73040     3.65947     2.12245
    1 imaginary frequencies ignored.
 Zero-point vibrational energy     257876.1 (Joules/Mol)
                                   61.63386 (Kcal/Mol)
 Warning -- explicit consideration of   9 degrees of freedom as
           vibrations may cause significant error
 Vibrational temperatures:    266.04   374.70   433.22   563.86   566.24
          (Kelvin)            640.99   694.26   769.01   825.89   993.77
                             1108.55  1163.49  1216.13  1400.14  1495.16
                             1561.13  1627.47  1640.06  1871.70  1906.70
                             2034.98  2086.51  2118.81  2210.38  2363.17
                             2439.48  2554.70  4525.83  4650.58  5230.35
                             5277.73  5419.63

 Zero-point correction=                           0.098220 (Hartree/Particle)
 Thermal correction to Energy=                    0.104579
 Thermal correction to Enthalpy=                  0.105524
 Thermal correction to Gibbs Free Energy=         0.068814
 Sum of electronic and zero-point Energies=           -323.424156
 Sum of electronic and thermal Energies=              -323.417796
 Sum of electronic and thermal Enthalpies=            -323.416852
 Sum of electronic and thermal Free Energies=         -323.453562

                     E (Thermal)             CV                S
                      KCal/Mol        Cal/Mol-Kelvin    Cal/Mol-Kelvin
 Total                   65.625             24.165             77.263
 Electronic               0.000              0.000              0.000
 Translational            0.889              2.981             39.372
 Rotational               0.889              2.981             26.573
 Vibrational             63.847             18.204             11.318
 Vibration     1          0.631              1.860              2.278
 Vibration     2          0.668              1.745              1.659
 Vibration     3          0.693              1.672              1.411
 Vibration     4          0.759              1.487              0.993
 Vibration     5          0.761              1.484              0.987
 Vibration     6          0.805              1.371              0.809
 Vibration     7          0.839              1.289              0.703
 Vibration     8          0.889              1.174              0.577
 Vibration     9          0.930              1.087              0.497

 Normal termination of Gaussian 09 at Thu Apr 14 11:22:11 2016.
