 Gaussian 09, Revision D.01,
 Gaussian 09:  ES64L-G09RevD.01 24-Apr-2013

 -----------------------------------------------
 # opt=(calcfc,ts) freq rb3lyp/6-31g iop(1/11=1)
 -----------------------------------------------

 -------------------------
 Ala-S-opt-freq-tsa3-6-31g
 -------------------------
 Symbolic Z-matrix:
 Charge =  0 Multiplicity = 1

 SCF Done:  E(RB3LYP) =  -323.431644067     A.U. after   18 cycles
 SCF Done:  E(RB3LYP) =  -323.449836997     A.U. after   15 cycles
 SCF Done:  E(RB3LYP) =  -323.464978312     A.U. after   15 cycles
 SCF Done:  E(RB3LYP) =  -323.477514477     A.U. after   15 cycles
 SCF Done:  E(RB3LYP) =  -323.487424776     A.U. after   15 cycles
 SCF Done:  E(RB3LYP) =  -323.495348282     A.U. after   14 cycles
 SCF Done:  E(RB3LYP) =  -323.502722508     A.U. after   14 cycles
 SCF Done:  E(RB3LYP) =  -323.507473075     A.U. after   14 cycles
 SCF Done:  E(RB3LYP) =  -323.509274894     A.U. after   13 cycles
 SCF Done:  E(RB3LYP) =  -323.511134696     A.U. after   14 cycles
 SCF Done:  E(RB3LYP) =  -323.513413388     A.U. after   14 cycles
 SCF Done:  E(RB3LYP) =  -323.513275665     A.U. after   15 cycles
 SCF Done:  E(RB3LYP) =  -323.513532914     A.U. after   14 cycles
 SCF Done:  E(RB3LYP) =  -323.513535735     A.U. after   12 cycles
 SCF Done:  E(RB3LYP) =  -323.513535970     A.U. after   12 cycles
 SCF Done:  E(RB3LYP) =  -323.513536094     A.U. after    9 cycles
 SCF Done:  E(RB3LYP) =  -323.513515541     A.U. after   14 cycles
 SCF Done:  E(RB3LYP) =  -323.513535980     A.U. after   13 cycles
 SCF Done:  E(RB3LYP) =  -323.513536110     A.U. after    9 cycles
 Optimization completed.
    -- Stationary point found.
 Normal termination of Gaussian 09 at Tue Apr 12 14:46:45 2016.

 ----------------------------------------------------------------------
 #N Geom=AllCheck Guess=TCheck SCRF=Check Test GenChk RB3LYP/6-31G Freq
 ----------------------------------------------------------------------

 Structure from the checkpoint file:  "Ala-S-opt-freq-tsa3-6-31g.chk"
 -------------------------
 Ala-S-opt-freq-tsa3-6-31g
 -------------------------
 Charge =  0 Multiplicity = 1

                         Standard orientation:
 ---------------------------------------------------------------------
 Center     Atomic      Atomic             Coordinates (Angstroms)
 Number     Number       Type             X           Y           Z
 ---------------------------------------------------------------------
      1          7           0        1.151603   -1.348109    0.104667
      2          1           0        2.128585   -1.572633    0.023635
      3          6           0        0.681578   -0.077266   -0.010702
      4          1           0       -2.230888    1.245134    0.106004
      5          6           0        1.637063    1.073447   -0.050726
      6          6           0       -0.701495    0.071002   -0.140169
      7          1           0        2.149672    1.175717    0.915405
      8          1           0        2.409956    0.935110   -0.819760
      9          1           0        1.102661    2.002365   -0.250532
     10          8           0       -1.576380   -1.100699    0.022289
     11          1           0        0.466544   -2.079404    0.250467
     12          8           0       -1.258718    1.335081    0.147629
     13          1           0       -1.109849   -0.547684   -1.107647
 ---------------------------------------------------------------------

 SCF Done:  E(RB3LYP) =  -323.513536110     A.U. after    1 cycles

 The electronic state is 1-A.
 Alpha  occ. eigenvalues --  -19.15039 -19.10886 -14.35987 -10.26591 -10.25123
 Alpha  occ. eigenvalues --  -10.19420  -1.04751  -0.96075  -0.92667  -0.76981
 Alpha  occ. eigenvalues --   -0.68787  -0.58544  -0.55204  -0.50696  -0.48125
 Alpha  occ. eigenvalues --   -0.44149  -0.42497  -0.41294  -0.39661  -0.34798
 Alpha  occ. eigenvalues --   -0.32649  -0.29406  -0.25036  -0.17349
 Alpha virt. eigenvalues --   -0.03378   0.07294   0.08762   0.10879   0.12629
 Alpha virt. eigenvalues --    0.14461   0.16321   0.17483   0.20357   0.23356
 Alpha virt. eigenvalues --    0.24961   0.34934   0.38432   0.53678   0.55190

 Mulliken charges:
               1
     1  N   -0.755328
     2  H    0.321692
     3  C    0.418980
     4  H    0.379783
     5  C   -0.473673
     6  C    0.087245
     7  H    0.168649
     8  H    0.148925
     9  H    0.199398
    10  O   -0.579035
    11  H    0.351902
    12  O   -0.588410
    13  H    0.319873
 Sum of Mulliken charges =   0.00000

 Dipole moment (field-independent basis, Debye):
    X=              3.3530    Y=             -0.0948    Z=             -1.0404  Tot=              3.5120
 Quadrupole moment (field-independent basis, Debye-Ang):
   XX=            -31.0685   YY=            -36.5772   ZZ=            -36.6996
   XY=             -6.2396   XZ=              1.2512   YZ=             -0.1532

  Exact polarizability:  73.231   0.878  49.673   2.925   0.091  28.081
 Approx polarizability: 143.438  11.087  74.266   8.562  -0.403  38.640

 ******    1 imaginary frequencies (negative Signs) ******

                      1                      2                      3
                      A                      A                      A
 Frequencies --  -1483.0987                84.9199               159.1744
 Red. masses --      1.1861                 1.0455                 4.4066
 Frc consts  --      1.5371                 0.0044                 0.0658
 IR Inten    --   1107.1884                 1.5131                12.1064

                      4                      5                      6
                      A                      A                      A
 Frequencies --    224.5189               245.2929               317.8577
 Red. masses --      4.3098                 1.3976                 2.0842
 Frc consts  --      0.1280                 0.0495                 0.1241
 IR Inten    --      3.2368                84.0418                56.0171

                      7                      8                      9
                      A                      A                      A
 Frequencies --    383.8435               446.5395               476.4550
 Red. masses --      2.9621                 1.9255                 1.7498
 Frc consts  --      0.2571                 0.2262                 0.2340
 IR Inten    --     22.8021               102.4278                68.8421

                     10                     11                     12
                      A                      A                      A
 Frequencies --    547.8074               615.0144               681.5762
 Red. masses --      4.3072                 2.0136                 2.4149
 Frc consts  --      0.7616                 0.4487                 0.6610
 IR Inten    --     13.7134               124.4637                55.0938

                     13                     14                     15
                      A                      A                      A
 Frequencies --    726.4998               926.3963               979.8541
 Red. masses --      2.4687                 2.8705                 1.1429
 Frc consts  --      0.7677                 1.4515                 0.6465
 IR Inten    --     58.1740                61.8593                26.2593

                     16                     17                     18
                      A                      A                      A
 Frequencies --   1050.9411              1092.6382              1099.3287
 Red. masses --      1.3389                 1.6287                 1.6325
 Frc consts  --      0.8713                 1.1456                 1.1624
 IR Inten    --      4.7151                19.8418                38.6320

                     19                     20                     21
                      A                      A                      A
 Frequencies --   1164.9879              1325.3054              1456.8866
 Red. masses --      3.0508                 1.6552                 1.3948
 Frc consts  --      2.4395                 1.7129                 1.7443
 IR Inten    --    288.0505                29.5582                19.9014

                     22                     23                     24
                      A                      A                      A
 Frequencies --   1463.5022              1519.8310              1531.7207
 Red. masses --      2.8475                 1.0848                 1.0551
 Frc consts  --      3.5933                 1.4764                 1.4585
 IR Inten    --     25.7770                12.6236                12.3569

                     25                     26                     27
                      A                      A                      A
 Frequencies --   1644.9106              1682.6240              2362.9369
 Red. masses --      2.0062                 1.7854                 1.0755
 Frc consts  --      3.1983                 2.9783                 3.5380
 IR Inten    --     22.4191               132.4320                88.6757

                     28                     29                     30
                      A                      A                      A
 Frequencies --   3029.3654              3080.3641              3181.1248
 Red. masses --      1.0415                 1.0971                 1.0937
 Frc consts  --      5.6311                 6.1334                 6.5212
 IR Inten    --     39.1412                19.8009                 1.9110

                     31                     32                     33
                      A                      A                      A
 Frequencies --   3567.3692              3670.3139              3735.6159
 Red. masses --      1.0481                 1.0651                 1.0996
 Frc consts  --      7.8589                 8.4537                 9.0410
 IR Inten    --     43.2347                47.6639                45.6194

 - Thermochemistry -
 -------------------
 Temperature   298.150 Kelvin.  Pressure   1.00000 Atm.
 Atom     1 has atomic number  7 and mass  14.00307

 Molecular mass:    89.04768 amu.
 Principal axes and moments of inertia in atomic units:
                           1         2         3
     Eigenvalues --   378.41563 548.10595 900.37128
           X            0.99991   0.01191   0.00561
           Y           -0.01190   0.99993  -0.00018
           Z           -0.00561   0.00012   0.99998
 This molecule is an asymmetric top.
 Rotational symmetry number  1.
 Rotational temperatures (Kelvin)      0.22889     0.15802     0.09620
 Rotational constants (GHZ):           4.76920     3.29269     2.00444
    1 imaginary frequencies ignored.
 Zero-point vibrational energy     266022.7 (Joules/Mol)
                                   63.58094 (Kcal/Mol)
 Warning -- explicit consideration of  10 degrees of freedom as
           vibrations may cause significant error
 Vibrational temperatures:    122.18   229.02   323.03   352.92   457.33
          (Kelvin)            552.26   642.47   685.51   788.17   884.87
                              980.63  1045.27  1332.88  1409.79  1512.07
                             1572.06  1581.69  1676.16  1906.82  2096.13
                             2105.65  2186.70  2203.80  2366.66  2420.92
                             3399.73  4358.58  4431.95  4576.92  5132.64
                             5280.76  5374.71

 Zero-point correction=                           0.101323 (Hartree/Particle)
 Thermal correction to Energy=                    0.108586
 Thermal correction to Enthalpy=                  0.109530
 Thermal correction to Gibbs Free Energy=         0.070507
 Sum of electronic and zero-point Energies=           -323.412213
 Sum of electronic and thermal Energies=              -323.404950
 Sum of electronic and thermal Enthalpies=            -323.404006
 Sum of electronic and thermal Free Energies=         -323.443029

                     E (Thermal)             CV                S
                      KCal/Mol        Cal/Mol-Kelvin    Cal/Mol-Kelvin
 Total                   68.139             25.509             82.131
 Electronic               0.000              0.000              0.000
 Translational            0.889              2.981             39.372
 Rotational               0.889              2.981             26.726
 Vibrational             66.361             19.547             16.033
 Vibration     1          0.601              1.960              3.774
 Vibration     2          0.621              1.892              2.560
 Vibration     3          0.649              1.804              1.922
 Vibration     4          0.660              1.771              1.764
 Vibration     5          0.704              1.639              1.321
 Vibration     6          0.753              1.505              1.024
 Vibration     7          0.806              1.369              0.806
 Vibration     8          0.833              1.302              0.720
 Vibration     9          0.903              1.144              0.549
 Vibration    10          0.975              1.000              0.425

 Optimization completed.
    -- Stationary point found.
 Normal termination of Gaussian 09 at Tue Apr 12 14:47:53 2016.
