 Gaussian 09, Revision D.01,
 Gaussian 09:  ES64L-G09RevD.01 24-Apr-2013

 -----------------------
 # opt freq rb3lyp/6-31g
 -----------------------

 ------------------------
 Ala-S-opt-freq-p1a-6-31g
 ------------------------
 Symbolic Z-matrix:
 Charge =  0 Multiplicity = 1

 SCF Done:  E(RB3LYP) =  -323.547622759     A.U. after   15 cycles
 SCF Done:  E(RB3LYP) =  -323.604041106     A.U. after   15 cycles
 SCF Done:  E(RB3LYP) =  -323.618693212     A.U. after   14 cycles
 SCF Done:  E(RB3LYP) =  -323.629416171     A.U. after   13 cycles
 SCF Done:  E(RB3LYP) =  -323.630436144     A.U. after   13 cycles
 SCF Done:  E(RB3LYP) =  -323.630282925     A.U. after   13 cycles
 SCF Done:  E(RB3LYP) =  -323.630632997     A.U. after   10 cycles
 SCF Done:  E(RB3LYP) =  -323.630782446     A.U. after   12 cycles
 SCF Done:  E(RB3LYP) =  -323.630855496     A.U. after   12 cycles
 SCF Done:  E(RB3LYP) =  -323.630887962     A.U. after   12 cycles
 SCF Done:  E(RB3LYP) =  -323.630926626     A.U. after   12 cycles
 SCF Done:  E(RB3LYP) =  -323.630967157     A.U. after   12 cycles
 SCF Done:  E(RB3LYP) =  -323.630975777     A.U. after   11 cycles
 SCF Done:  E(RB3LYP) =  -323.630976952     A.U. after    9 cycles
 SCF Done:  E(RB3LYP) =  -323.630977442     A.U. after    8 cycles
 SCF Done:  E(RB3LYP) =  -323.630977539     A.U. after    7 cycles
 Optimization completed.
    -- Stationary point found.
 Normal termination of Gaussian 09 at Fri Apr  1 23:25:29 2016.

 -----------------------------------------------------------------
 #N Geom=AllCheck Guess=TCheck SCRF=Check GenChk RB3LYP/6-31G Freq
 -----------------------------------------------------------------

 Structure from the checkpoint file:  "Ala-S-opt-freq-p1a-6-31g.chk"
 ------------------------
 Ala-S-opt-freq-p1a-6-31g
 ------------------------
 Charge =  0 Multiplicity = 1

                         Standard orientation:
 ---------------------------------------------------------------------
 Center     Atomic      Atomic             Coordinates (Angstroms)
 Number     Number       Type             X           Y           Z
 ---------------------------------------------------------------------
      1          7           0       -1.235224   -1.151951   -0.537164
      2          1           0       -1.108535   -1.733650    0.281293
      3          6           0       -0.665831    0.189580   -0.429471
      4          1           0       -0.735000    0.670743   -1.409678
      5          6           0       -1.335056    1.103233    0.630165
      6          6           0        0.817588    0.069331   -0.138562
      7          1           0       -1.253999    0.652714    1.625026
      8          1           0       -0.873243    2.097472    0.655868
      9          1           0       -2.396654    1.224610    0.387320
     10          8           0        1.053667   -0.789368    0.920705
     11          1           0       -2.163232   -1.196899   -0.936587
     12          8           0        1.728820    0.669143   -0.709418
     13          1           0        2.017129   -0.862402    1.093808
 ---------------------------------------------------------------------

 SCF Done:  E(RB3LYP) =  -323.630977539     A.U. after    1 cycles

 The electronic state is 1-A.
 Alpha  occ. eigenvalues --  -19.19721 -19.15003 -14.30991 -10.33150 -10.23649
 Alpha  occ. eigenvalues --  -10.18155  -1.11566  -1.02947  -0.89527  -0.75596
 Alpha  occ. eigenvalues --   -0.67635  -0.60835  -0.51522  -0.49218  -0.46780
 Alpha  occ. eigenvalues --   -0.45353  -0.43607  -0.40979  -0.39864  -0.37585
 Alpha  occ. eigenvalues --   -0.36726  -0.31996  -0.28197  -0.22312
 Alpha virt. eigenvalues --   -0.00853   0.05434   0.09254   0.13010   0.13414
 Alpha virt. eigenvalues --    0.15789   0.17382   0.17751   0.20280   0.20677
 Alpha virt. eigenvalues --    0.26378   0.29949   0.35317   0.52363   0.56054

 Mulliken charges:
               1
     1  N   -0.693171
     2  H    0.302512
     3  C   -0.025551
     4  H    0.171162
     5  C   -0.405153
     6  C    0.517784
     7  H    0.151547
     8  H    0.145672
     9  H    0.138905
    10  O   -0.568272
    11  H    0.287314
    12  O   -0.410156
    13  H    0.387407
 Sum of Mulliken charges =   0.00000

 Dipole moment (field-independent basis, Debye):
    X=             -1.8817    Y=             -0.4902    Z=              1.7180  Tot=              2.5947
 Quadrupole moment (field-independent basis, Debye-Ang):
   XX=            -32.0827   YY=            -37.0355   ZZ=            -37.4052
   XY=             -2.9441   XZ=              5.2673   YZ=             -0.7860

  Exact polarizability:  47.821   1.803  41.484   1.234  -4.800  38.323
 Approx polarizability:  61.650   7.740  57.748  -2.272 -13.094  55.505

                      1                      2                      3
                      A                      A                      A
 Frequencies --     46.3514               223.0204               239.7363
 Red. masses --      5.1235                 1.4759                 2.4234
 Frc consts  --      0.0065                 0.0433                 0.0821
 IR Inten    --      0.8327                 9.8788                 4.7074

                      4                      5                      6
                      A                      A                      A
 Frequencies --    253.0869               309.1532               359.9275
 Red. masses --      1.0979                 2.1152                 2.7126
 Frc consts  --      0.0414                 0.1191                 0.2070
 IR Inten    --     28.6922                26.3604                12.0951

                      7                      8                      9
                      A                      A                      A
 Frequencies --    520.1309               576.2973               605.1967
 Red. masses --      2.8928                 1.7115                 2.3421
 Frc consts  --      0.4611                 0.3349                 0.5054
 IR Inten    --     30.3217                70.6425                51.8562

                     10                     11                     12
                      A                      A                      A
 Frequencies --    618.5975               757.4779               781.1697
 Red. masses --      1.2632                 5.3688                 3.2389
 Frc consts  --      0.2848                 1.8150                 1.1645
 IR Inten    --    343.1388                38.4359                 5.9243

                     13                     14                     15
                      A                      A                      A
 Frequencies --    920.4804              1032.5113              1072.1696
 Red. masses --      2.1875                 1.6017                 1.5268
 Frc consts  --      1.0920                 1.0061                 1.0341
 IR Inten    --     11.2036                76.7941               104.9835

                     16                     17                     18
                      A                      A                      A
 Frequencies --   1082.1534              1188.1505              1249.8668
 Red. masses --      3.3266                 1.7155                 1.7158
 Frc consts  --      2.2953                 1.4269                 1.5792
 IR Inten    --     44.8315                73.1247                 7.7226

                     19                     20                     21
                      A                      A                      A
 Frequencies --   1358.9321              1369.6404              1427.8954
 Red. masses --      2.1374                 1.3766                 1.3774
 Frc consts  --      2.3256                 1.5215                 1.6546
 IR Inten    --     26.8924                18.3053                14.9794

                     22                     23                     24
                      A                      A                      A
 Frequencies --   1443.7725              1532.4032              1541.9158
 Red. masses --      1.2051                 1.0478                 1.0624
 Frc consts  --      1.4800                 1.4497                 1.4882
 IR Inten    --      5.3125                 3.9789                 8.9638

                     25                     26                     27
                      A                      A                      A
 Frequencies --   1690.3850              1761.6817              3044.1383
 Red. masses --      1.0945                 9.0882                 1.0335
 Frc consts  --      1.8427                16.6181                 5.6427
 IR Inten    --     38.1249               227.0941                20.3069

                     28                     29                     30
                      A                      A                      A
 Frequencies --   3098.3920              3123.0134              3138.8838
 Red. masses --      1.0863                 1.1003                 1.1005
 Frc consts  --      6.1443                 6.3231                 6.3884
 IR Inten    --      6.4319                29.1303                28.2699

                     31                     32                     33
                      A                      A                      A
 Frequencies --   3558.8790              3614.5249              3684.6121
 Red. masses --      1.0439                 1.0640                 1.0995
 Frc consts  --      7.7903                 8.1906                 8.7951
 IR Inten    --      3.1439                28.3009                 5.4891

 - Thermochemistry -
 -------------------
 Temperature   298.150 Kelvin.  Pressure   1.00000 Atm.
 Atom     1 has atomic number  7 and mass  14.00307

 Molecular mass:    89.04768 amu.
 Principal axes and moments of inertia in atomic units:
                           1         2         3
     Eigenvalues --   367.56410 643.54852 724.61298
           X            0.99896  -0.04439   0.01043
           Y            0.04354   0.99653   0.07087
           Z           -0.01354  -0.07035   0.99743
 This molecule is an asymmetric top.
 Rotational symmetry number  1.
 Rotational temperatures (Kelvin)      0.23564     0.13459     0.11953
 Rotational constants (GHZ):           4.91000     2.80436     2.49063
 Zero-point vibrational energy     282465.5 (Joules/Mol)
                                   67.51088 (Kcal/Mol)
 Warning -- explicit consideration of  10 degrees of freedom as
           vibrations may cause significant error
 Vibrational temperatures:     66.69   320.88   344.93   364.14   444.80
          (Kelvin)            517.85   748.35   829.16   870.74   890.02
                             1089.84  1123.93  1324.36  1485.55  1542.61
                             1556.98  1709.48  1798.28  1955.20  1970.60
                             2054.42  2077.26  2204.78  2218.47  2432.08
                             2534.66  4379.83  4457.89  4493.31  4516.15
                             5120.43  5200.49  5301.33

 Zero-point correction=                           0.107585 (Hartree/Particle)
 Thermal correction to Energy=                    0.114605
 Thermal correction to Enthalpy=                  0.115549
 Thermal correction to Gibbs Free Energy=         0.076648
 Sum of electronic and zero-point Energies=           -323.523392
 Sum of electronic and thermal Energies=              -323.516373
 Sum of electronic and thermal Enthalpies=            -323.515428
 Sum of electronic and thermal Free Energies=         -323.554329

                     E (Thermal)             CV                S
                      KCal/Mol        Cal/Mol-Kelvin    Cal/Mol-Kelvin
 Total                   71.916             24.630             81.874
 Electronic               0.000              0.000              0.000
 Translational            0.889              2.981             39.372
 Rotational               0.889              2.981             26.641
 Vibrational             70.138             18.669             15.861
 Vibration     1          0.595              1.979              4.967
 Vibration     2          0.649              1.806              1.934
 Vibration     3          0.657              1.780              1.805
 Vibration     4          0.664              1.758              1.709
 Vibration     5          0.699              1.656              1.367
 Vibration     6          0.734              1.555              1.122
 Vibration     7          0.875              1.205              0.610
 Vibration     8          0.933              1.083              0.492
 Vibration     9          0.964              1.021              0.441
 Vibration    10          0.978              0.993              0.419

 Optimization completed.
    -- Stationary point found.
 Normal termination of Gaussian 09 at Fri Apr  1 23:26:31 2016.
