 Gaussian 09, Revision D.01,
 Gaussian 09:  ES64L-G09RevD.01 24-Apr-2013

 -------------------------
 # opt b3lyp/6-311++g(d,p)
 -------------------------

 -----------------------
 Phe-R-opt-6-311++g(d,p)
 -----------------------
 Symbolic Z-matrix:
 Charge =  0 Multiplicity = 1

 SCF Done:  E(RB3LYP) =  -554.958483886     A.U. after   15 cycles

 The electronic state is 1-A.
 Alpha  occ. eigenvalues --  -19.18678 -19.12950 -14.31140 -10.31562 -10.22942
 Alpha  occ. eigenvalues --  -10.18871 -10.18548 -10.17594 -10.17521 -10.17506
 Alpha  occ. eigenvalues --  -10.17446 -10.17294  -1.12653  -1.03747  -0.91138
 Alpha  occ. eigenvalues --   -0.86105  -0.78942  -0.74844  -0.73686  -0.67549
 Alpha  occ. eigenvalues --   -0.62041  -0.60952  -0.58760  -0.52525  -0.51993
 Alpha  occ. eigenvalues --   -0.50840  -0.49486  -0.47337  -0.46464  -0.45615
 Alpha  occ. eigenvalues --   -0.43843  -0.42709  -0.42336  -0.40478  -0.39063
 Alpha  occ. eigenvalues --   -0.37873  -0.36014  -0.34714  -0.34501  -0.34084
 Alpha  occ. eigenvalues --   -0.31541  -0.26125  -0.25330  -0.24838
 Alpha virt. eigenvalues --   -0.02787  -0.01703  -0.01463  -0.00847  -0.00207
 Alpha virt. eigenvalues --    0.00615   0.00987   0.01570   0.02542   0.03372
 Alpha virt. eigenvalues --    0.04079   0.04775   0.05514   0.06090   0.06453

 Mulliken charges:
               1
     1  C   -0.578741
     2  H    0.243849
     3  C   -0.158786
     4  O   -0.246524
     5  O   -0.165100
     6  H    0.289972
     7  C   -0.622705
     8  H    0.167780
     9  H    0.194570
    10  C    1.256585
    11  C   -0.168177
    12  C   -0.328809
    13  C   -0.298274
    14  H    0.159327
    15  C   -0.325179
    16  H    0.161570
    17  C   -0.303613
    18  H    0.171837
    19  H    0.165814
    20  H    0.151510
    21  N   -0.251922
    22  H    0.239424
    23  H    0.245594
 Sum of Mulliken charges =   0.00000

 Dipole moment (field-independent basis, Debye):
    X=              0.7363    Y=             -1.4613    Z=             -0.5194  Tot=              1.7168
 Quadrupole moment (field-independent basis, Debye-Ang):
   XX=            -65.1818   YY=            -71.7976   ZZ=            -72.2994
   XY=             -7.3668   XZ=             -4.1481   YZ=             -1.2661

 Optimization completed.
    -- Stationary point found.

                         Standard orientation:
 ---------------------------------------------------------------------
 Center     Atomic      Atomic             Coordinates (Angstroms)
 Number     Number       Type             X           Y           Z
 ---------------------------------------------------------------------
      1          6           0        1.370873   -0.121471    0.449530
      2          1           0        1.031649    0.510785    1.272159
      3          6           0        2.777210    0.372255    0.109456
      4          8           0        3.246523    1.431957    0.441243
      5          8           0        3.463309   -0.520150   -0.652783
      6          1           0        4.328156   -0.128730   -0.847482
      7          6           0        0.446191    0.130734   -0.773521
      8          1           0        0.697048    1.105252   -1.202857
      9          1           0        0.675502   -0.621374   -1.534948
     10          6           0       -1.024566    0.104792   -0.425337
     11          6           0       -1.742160   -1.095273   -0.380958
     12          6           0       -1.696838    1.295030   -0.124918
     13          6           0       -3.094189   -1.105141   -0.044190
     14          1           0       -1.235146   -2.026826   -0.602618
     15          6           0       -3.048809    1.289071    0.213755
     16          1           0       -1.158175    2.237168   -0.161220
     17          6           0       -3.752291    0.086759    0.255349
     18          1           0       -3.634203   -2.045219   -0.015737
     19          1           0       -3.552168    2.222766    0.439412
     20          1           0       -4.804874    0.079037    0.515450
     21          7           0        1.295236   -1.514383    0.877501
     22          1           0        1.776877   -2.121998    0.222538
     23          1           0        1.717501   -1.645181    1.790121
 ---------------------------------------------------------------------

 1\1\GINC-KALI\FOpt\RB3LYP\6-311++G(d,p)\C9H11N1O2\ROOT\29-Mar-2016\0\\
 # opt b3lyp/6-311++g(d,p)\\Phe-R-opt-6-311++g(d,p)\\0,1\C,1.37087301,0
 .12147123,-0.44953025\H,1.03164876,-0.51078455,-1.27215935\C,2.7772101
 8,-0.37225505,-0.10945588\O,3.24652282,-1.43195738,-0.44124264\O,3.463
 30868,0.52014983,0.6527827\H,4.32815614,0.12872962,0.84748245\C,0.4461
 9097,-0.13073369,0.77352148\H,0.69704757,-1.1052515,1.20285721\H,0.675
 50206,0.62137372,1.53494778\C,-1.02456632,-0.10479214,0.42533732\C,-1.
 74216,1.09527259,0.38095784\C,-1.69683755,-1.29502969,0.12491798\C,-3.

 Normal termination of Gaussian 09 at Tue Mar 29 10:57:05 2016.
