 Gaussian 09, Revision D.01,
 Gaussian 09:  ES64L-G09RevD.01 24-Apr-2013

 ------------------------------------------------
 #p opt=(calcfc,ts) freq rb3lyp/6-31g iop(1/11=1)
 ------------------------------------------------

 -------------------------
 Ala-S-opt-freq-tsa3-6-31g
 -------------------------
 Symbolic Z-matrix:
 Charge =  0 Multiplicity = 1

 SCF Done:  E(RB3LYP) =  -323.348799488     A.U. after   16 cycles
 SCF Done:  E(RB3LYP) =  -323.384865678     A.U. after   14 cycles
 SCF Done:  E(RB3LYP) =  -323.422982105     A.U. after   14 cycles
 SCF Done:  E(RB3LYP) =  -323.455433047     A.U. after   14 cycles
 SCF Done:  E(RB3LYP) =  -323.475900224     A.U. after   14 cycles
 SCF Done:  E(RB3LYP) =  -323.470707368     A.U. after   15 cycles
 SCF Done:  E(RB3LYP) =  -323.474835828     A.U. after   15 cycles
 SCF Done:  E(RB3LYP) =  -323.484840461     A.U. after   14 cycles
 SCF Done:  E(RB3LYP) =  -323.484313299     A.U. after   14 cycles
 SCF Done:  E(RB3LYP) =  -323.486748409     A.U. after   15 cycles
 SCF Done:  E(RB3LYP) =  -323.513510381     A.U. after   13 cycles
 SCF Done:  E(RB3LYP) =  -323.513519859     A.U. after   12 cycles
 SCF Done:  E(RB3LYP) =  -323.513525313     A.U. after   11 cycles
 SCF Done:  E(RB3LYP) =  -323.513532734     A.U. after   12 cycles
 SCF Done:  E(RB3LYP) =  -323.513534764     A.U. after   10 cycles
 SCF Done:  E(RB3LYP) =  -323.513535660     A.U. after    9 cycles
 SCF Done:  E(RB3LYP) =  -323.513535820     A.U. after    8 cycles
 SCF Done:  E(RB3LYP) =  -323.513536018     A.U. after    8 cycles
 SCF Done:  E(RB3LYP) =  -323.513536109     A.U. after    9 cycles
 Optimization completed.
    -- Stationary point found.
 Normal termination of Gaussian 09 at Wed Apr 13 00:27:27 2016.

 ----------------------------------------------------------------------
 #P Geom=AllCheck Guess=TCheck SCRF=Check Test GenChk RB3LYP/6-31G Freq
 ----------------------------------------------------------------------

 Structure from the checkpoint file:  "Ala-S-opt-freq-tsa3-6-31g.chk"
 -------------------------
 Ala-S-opt-freq-tsa3-6-31g
 -------------------------
 Charge =  0 Multiplicity = 1

                         Standard orientation:
 ---------------------------------------------------------------------
 Center     Atomic      Atomic             Coordinates (Angstroms)
 Number     Number       Type             X           Y           Z
 ---------------------------------------------------------------------
      1          7           0        1.151705   -1.348125   -0.104525
      2          1           0        2.128736   -1.572539   -0.023786
      3          6           0        0.681590   -0.077278    0.010785
      4          1           0       -2.230878    1.244842   -0.106966
      5          6           0        1.636973    1.073520    0.050574
      6          6           0       -0.701503    0.070916    0.140350
      7          1           0        1.102352    2.002533    0.249389
      8          1           0        2.409342    0.935843    0.820249
      9          1           0        2.150194    1.175114   -0.915294
     10          8           0       -1.576404   -1.100655   -0.022475
     11          1           0        0.466742   -2.079453   -0.250551
     12          8           0       -1.258679    1.335061   -0.147446
     13          1           0       -1.110115   -0.547658    1.107754
 ---------------------------------------------------------------------

 SCF Done:  E(RB3LYP) =  -323.513536109     A.U. after    1 cycles

 The electronic state is 1-A.
 Alpha  occ. eigenvalues --  -19.15036 -19.10884 -14.35989 -10.26591 -10.25125
 Alpha  occ. eigenvalues --  -10.19420  -1.04749  -0.96073  -0.92667  -0.76981
 Alpha  occ. eigenvalues --   -0.68786  -0.58543  -0.55205  -0.50693  -0.48125
 Alpha  occ. eigenvalues --   -0.44150  -0.42498  -0.41295  -0.39660  -0.34795
 Alpha  occ. eigenvalues --   -0.32648  -0.29405  -0.25034  -0.17349
 Alpha virt. eigenvalues --   -0.03382   0.07293   0.08764   0.10881   0.12629
 Alpha virt. eigenvalues --    0.14462   0.16323   0.17481   0.20361   0.23355
 Alpha virt. eigenvalues --    0.24961   0.34930   0.38430   0.53676   0.55189

 Mulliken charges:
               1
     1  N   -0.755311
     2  H    0.321706
     3  C    0.418983
     4  H    0.379780
     5  C   -0.473720
     6  C    0.087266
     7  H    0.199447
     8  H    0.148969
     9  H    0.168616
    10  O   -0.579059
    11  H    0.351902
    12  O   -0.588452
    13  H    0.319871
 Sum of Mulliken charges =   0.00000

 Dipole moment (field-independent basis, Debye):
    X=              3.3539    Y=             -0.0956    Z=              1.0377  Tot=              3.5121
 Quadrupole moment (field-independent basis, Debye-Ang):
   XX=            -31.0676   YY=            -36.5788   ZZ=            -36.6983
   XY=             -6.2384   XZ=             -1.2484   YZ=              0.1510

  Exact polarizability:  73.238   0.881  49.673  -2.920  -0.089  28.081
 Approx polarizability: 143.473  11.099  74.267  -8.552   0.408  38.640

 ******    1 imaginary frequencies (negative Signs) ******

                      1                      2                      3
                      A                      A                      A
 Frequencies --  -1482.8983                84.7108               159.1115
 Red. masses --      1.1862                 1.0455                 4.4032
 Frc consts  --      1.5368                 0.0044                 0.0657
 IR Inten    --   1107.4751                 1.5297                12.1653

                      4                      5                      6
                      A                      A                      A
 Frequencies --    224.5124               245.2324               317.7987
 Red. masses --      4.3106                 1.3967                 2.0864
 Frc consts  --      0.1280                 0.0495                 0.1241
 IR Inten    --      3.2347                84.1870                55.8578

                      7                      8                      9
                      A                      A                      A
 Frequencies --    383.8778               446.4981               476.4629
 Red. masses --      2.9613                 1.9283                 1.7481
 Frc consts  --      0.2571                 0.2265                 0.2338
 IR Inten    --     22.8203               102.0961                69.0090

                     10                     11                     12
                      A                      A                      A
 Frequencies --    547.7999               614.9752               681.5668
 Red. masses --      4.3062                 2.0110                 2.4157
 Frc consts  --      0.7614                 0.4481                 0.6612
 IR Inten    --     13.7225               124.7508                54.9874

                     13                     14                     15
                      A                      A                      A
 Frequencies --    726.5420               926.4422               979.9063
 Red. masses --      2.4717                 2.8730                 1.1425
 Frc consts  --      0.7687                 1.4528                 0.6464
 IR Inten    --     58.0522                61.9649                26.1813

                     16                     17                     18
                      A                      A                      A
 Frequencies --   1050.9074              1092.6004              1099.3238
 Red. masses --      1.3390                 1.6303                 1.6305
 Frc consts  --      0.8713                 1.1467                 1.1610
 IR Inten    --      4.7173                20.0581                38.3926

                     19                     20                     21
                      A                      A                      A
 Frequencies --   1164.9100              1325.2724              1456.8570
 Red. masses --      3.0535                 1.6551                 1.3995
 Frc consts  --      2.4414                 1.7127                 1.7501
 IR Inten    --    287.9208                29.5923                20.0814

                     22                     23                     24
                      A                      A                      A
 Frequencies --   1463.4492              1519.8079              1531.7558
 Red. masses --      2.8294                 1.0849                 1.0549
 Frc consts  --      3.5703                 1.4765                 1.4583
 IR Inten    --     25.6123                12.6341                12.3638

                     25                     26                     27
                      A                      A                      A
 Frequencies --   1644.8571              1682.5494              2362.9241
 Red. masses --      2.0084                 1.7832                 1.0755
 Frc consts  --      3.2016                 2.9743                 3.5380
 IR Inten    --     22.3144               132.5062                88.7250

                     28                     29                     30
                      A                      A                      A
 Frequencies --   3029.3979              3080.4314              3181.0879
 Red. masses --      1.0415                 1.0971                 1.0938
 Frc consts  --      5.6312                 6.1336                 6.5211
 IR Inten    --     39.1367                19.7865                 1.9059

                     31                     32                     33
                      A                      A                      A
 Frequencies --   3567.4495              3670.2790              3735.6631
 Red. masses --      1.0481                 1.0651                 1.0996
 Frc consts  --      7.8592                 8.4535                 9.0413
 IR Inten    --     43.2516                47.6622                45.6352

 - Thermochemistry -
 -------------------
 Temperature   298.150 Kelvin.  Pressure   1.00000 Atm.
 Atom     1 has atomic number  7 and mass  14.00307

 Molecular mass:    89.04768 amu.
 Principal axes and moments of inertia in atomic units:
                           1         2         3
     Eigenvalues --   378.41442 548.10463 900.36979
           X            0.99991   0.01191  -0.00561
           Y           -0.01191   0.99993   0.00017
           Z            0.00561  -0.00010   0.99998
 This molecule is an asymmetric top.
 Rotational symmetry number  1.
 Rotational temperatures (Kelvin)      0.22889     0.15802     0.09620
 Rotational constants (GHZ):           4.76922     3.29269     2.00444
    1 imaginary frequencies ignored.
 Zero-point vibrational energy     266019.3 (Joules/Mol)
                                   63.58015 (Kcal/Mol)
 Warning -- explicit consideration of  10 degrees of freedom as
           vibrations may cause significant error
 Vibrational temperatures:    121.88   228.93   323.02   352.83   457.24
          (Kelvin)            552.31   642.41   685.52   788.16   884.81
                              980.62  1045.33  1332.94  1409.86  1512.02
                             1572.01  1581.68  1676.04  1906.77  2096.09
                             2105.57  2186.66  2203.85  2366.58  2420.81
                             3399.72  4358.62  4432.05  4576.87  5132.76
                             5280.71  5374.78

 Zero-point correction=                           0.101321 (Hartree/Particle)
 Thermal correction to Energy=                    0.108585
 Thermal correction to Enthalpy=                  0.109529
 Thermal correction to Gibbs Free Energy=         0.070503
 Sum of electronic and zero-point Energies=           -323.412215
 Sum of electronic and thermal Energies=              -323.404951
 Sum of electronic and thermal Enthalpies=            -323.404007
 Sum of electronic and thermal Free Energies=         -323.443033

                     E (Thermal)             CV                S
                      KCal/Mol        Cal/Mol-Kelvin    Cal/Mol-Kelvin
 Total                   68.138             25.510             82.138
 Electronic               0.000              0.000              0.000
 Translational            0.889              2.981             39.372
 Rotational               0.889              2.981             26.726
 Vibrational             66.361             19.548             16.039
 Vibration     1          0.601              1.960              3.779
 Vibration     2          0.621              1.892              2.560
 Vibration     3          0.649              1.804              1.922
 Vibration     4          0.660              1.771              1.765
 Vibration     5          0.704              1.640              1.321
 Vibration     6          0.753              1.505              1.024
 Vibration     7          0.806              1.369              0.806
 Vibration     8          0.833              1.302              0.720
 Vibration     9          0.903              1.145              0.549
 Vibration    10          0.974              1.000              0.425

 Optimization completed.
    -- Stationary point found.
 Normal termination of Gaussian 09 at Wed Apr 13 00:29:29 2016.
