 Gaussian 09, Revision D.01,
 Gaussian 09:  ES64L-G09RevD.01 24-Apr-2013

 -----------------------------------------------
 # opt=(calcfc,ts) freq rb3lyp/6-31g iop(1/11=1)
 -----------------------------------------------

 -------------------------
 Ala-S-opt-freq-tsb1-6-31g
 -------------------------
 Symbolic Z-matrix:
 Charge =  0 Multiplicity = 1

 SCF Done:  E(RB3LYP) =  -323.371850594     A.U. after   20 cycles
 SCF Done:  E(RB3LYP) =  -323.421271459     A.U. after   17 cycles
 SCF Done:  E(RB3LYP) =  -323.477315898     A.U. after   15 cycles
 SCF Done:  E(RB3LYP) =  -323.523432764     A.U. after   14 cycles
 SCF Done:  E(RB3LYP) =  -323.532683696     A.U. after   14 cycles
 SCF Done:  E(RB3LYP) =  -323.532055257     A.U. after   14 cycles
 SCF Done:  E(RB3LYP) =  -323.523622575     A.U. after   14 cycles
 SCF Done:  E(RB3LYP) =  -323.516562616     A.U. after   15 cycles
 SCF Done:  E(RB3LYP) =  -323.523920065     A.U. after   15 cycles
 SCF Done:  E(RB3LYP) =  -323.540960371     A.U. after   15 cycles
 SCF Done:  E(RB3LYP) =  -323.557088691     A.U. after    8 cycles
 SCF Done:  E(RB3LYP) =  -323.557089141     A.U. after    9 cycles
 SCF Done:  E(RB3LYP) =  -323.557089207     A.U. after    8 cycles
 SCF Done:  E(RB3LYP) =  -323.556311529     A.U. after   15 cycles
 SCF Done:  E(RB3LYP) =  -323.556954828     A.U. after   13 cycles
 SCF Done:  E(RB3LYP) =  -323.557046916     A.U. after   13 cycles
 SCF Done:  E(RB3LYP) =  -323.557089059     A.U. after   12 cycles
 SCF Done:  E(RB3LYP) =  -323.557089198     A.U. after    8 cycles
 SCF Done:  E(RB3LYP) =  -323.557089247     A.U. after    7 cycles
 Optimization completed.
    -- Stationary point found.
 Normal termination of Gaussian 09 at Sun Apr 10 14:04:15 2016.

 ----------------------------------------------------------------------
 #N Geom=AllCheck Guess=TCheck SCRF=Check Test GenChk RB3LYP/6-31G Freq
 ----------------------------------------------------------------------

 Structure from the checkpoint file:  "Ala-S-opt-freq-tab1-6-31g.chk"
 -------------------------
 Ala-S-opt-freq-tsb1-6-31g
 -------------------------
 Charge =  0 Multiplicity = 1

                         Standard orientation:
 ---------------------------------------------------------------------
 Center     Atomic      Atomic             Coordinates (Angstroms)
 Number     Number       Type             X           Y           Z
 ---------------------------------------------------------------------
      1          7           0       -1.208096   -1.296576    0.107013
      2          1           0       -0.531211   -2.044595    0.244947
      3          6           0       -0.687747   -0.069860   -0.023654
      4          1           0        0.251655    0.087704   -1.348022
      5          6           0       -1.528861    1.164549    0.000953
      6          6           0        0.777084   -0.061675   -0.145344
      7          1           0       -0.972246    2.011127   -0.400136
      8          1           0       -2.465315    1.045048   -0.556414
      9          1           0       -1.781706    1.394383    1.044772
     10          8           0        1.474183   -1.128192    0.014601
     11          1           0       -2.177945   -1.508381   -0.064658
     12          8           0        1.333913    1.225717    0.137180
     13          1           0        2.305824    1.112470    0.124443
 ---------------------------------------------------------------------

 SCF Done:  E(RB3LYP) =  -323.557089247     A.U. after    1 cycles

 The electronic state is 1-A.
 Alpha  occ. eigenvalues --  -19.14544 -19.07264 -14.38102 -10.29877 -10.28639
 Alpha  occ. eigenvalues --  -10.20803  -1.05141  -0.97851  -0.94475  -0.78900
 Alpha  occ. eigenvalues --   -0.70547  -0.60203  -0.56840  -0.50954  -0.47619
 Alpha  occ. eigenvalues --   -0.44628  -0.42953  -0.41757  -0.40618  -0.34817
 Alpha  occ. eigenvalues --   -0.34369  -0.27543  -0.23243  -0.20586
 Alpha virt. eigenvalues --   -0.02897   0.05963   0.08446   0.09703   0.11941
 Alpha virt. eigenvalues --    0.13561   0.15335   0.16526   0.21590   0.23582
 Alpha virt. eigenvalues --    0.28474   0.33359   0.37458   0.52395   0.54430

 Mulliken charges:
               1
     1  N   -0.700210
     2  H    0.361855
     3  C    0.296294
     4  H    0.077249
     5  C   -0.439448
     6  C    0.294943
     7  H    0.203285
     8  H    0.148631
     9  H    0.184691
    10  O   -0.541104
    11  H    0.329641
    12  O   -0.593505
    13  H    0.377678
 Sum of Mulliken charges =   0.00000

 Dipole moment (field-independent basis, Debye):
    X=             -4.5661    Y=              0.4669    Z=             -0.3168  Tot=              4.6009
 Quadrupole moment (field-independent basis, Debye-Ang):
   XX=            -31.0642   YY=            -36.6791   ZZ=            -37.6837
   XY=              6.8236   XZ=              0.1597   YZ=             -0.3330

  Exact polarizability:  63.404   1.624  50.397  -2.602  -2.539  33.323
 Approx polarizability:  95.687   0.370  76.487  -7.802  -7.721  51.608

 ******    1 imaginary frequencies (negative Signs) ******

                      1                      2                      3
                      A                      A                      A
 Frequencies --   -863.3282               156.5787               191.2291
 Red. masses --      1.8687                 1.1685                 3.8206
 Frc consts  --      0.8206                 0.0169                 0.0823
 IR Inten    --    671.0469                 0.0884                 1.6851

                      4                      5                      6
                      A                      A                      A
 Frequencies --    243.1932               327.3893               386.8671
 Red. masses --      3.3739                 3.1491                 1.1662
 Frc consts  --      0.1176                 0.1989                 0.1028
 IR Inten    --      5.3105                24.6876               142.8236

                      7                      8                      9
                      A                      A                      A
 Frequencies --    429.1083               527.8624               548.2705
 Red. masses --      2.4400                 3.1565                 3.1738
 Frc consts  --      0.2647                 0.5182                 0.5621
 IR Inten    --     17.3231                50.4134                24.7393

                     10                     11                     12
                      A                      A                      A
 Frequencies --    614.3167               710.3039               789.8378
 Red. masses --      1.3727                 2.8426                 1.3572
 Frc consts  --      0.3052                 0.8450                 0.4989
 IR Inten    --    114.1223                55.8599               118.5589

                     13                     14                     15
                      A                      A                      A
 Frequencies --    910.7278              1042.1161              1054.1946
 Red. masses --      2.4835                 1.9068                 1.5962
 Frc consts  --      1.2136                 1.2201                 1.0451
 IR Inten    --     51.9723                97.2916                32.1759

                     16                     17                     18
                      A                      A                      A
 Frequencies --   1093.9761              1102.9033              1171.5021
 Red. masses --      1.5423                 1.4697                 1.1062
 Frc consts  --      1.0875                 1.0533                 0.8945
 IR Inten    --    125.6226                 0.0337                41.0997

                     19                     20                     21
                      A                      A                      A
 Frequencies --   1302.1502              1395.9327              1461.9438
 Red. masses --      1.9209                 3.1347                 1.1929
 Frc consts  --      1.9190                 3.5989                 1.5022
 IR Inten    --     18.4116               142.4632                13.2356

                     22                     23                     24
                      A                      A                      A
 Frequencies --   1497.8362              1512.5004              1529.6908
 Red. masses --      1.6120                 1.4809                 1.3051
 Frc consts  --      2.1308                 1.9960                 1.7993
 IR Inten    --     56.2305               101.2288                20.0121

                     25                     26                     27
                      A                      A                      A
 Frequencies --   1570.1433              1633.4936              1679.6289
 Red. masses --      1.6445                 1.5987                 1.3513
 Frc consts  --      2.3887                 2.5134                 2.2461
 IR Inten    --    164.3031                97.2038               135.5232

                     28                     29                     30
                      A                      A                      A
 Frequencies --   3043.9450              3102.5999              3188.7345
 Red. masses --      1.0405                 1.0984                 1.0948
 Frc consts  --      5.6800                 6.2297                 6.5588
 IR Inten    --     21.1034                16.6762                 1.1827

                     31                     32                     33
                      A                      A                      A
 Frequencies --   3501.0115              3658.2187              3700.0111
 Red. masses --      1.0519                 1.0648                 1.0948
 Frc consts  --      7.5966                 8.3957                 8.8310
 IR Inten    --     50.3678                38.4985                50.7751

 - Thermochemistry -
 -------------------
 Temperature   298.150 Kelvin.  Pressure   1.00000 Atm.
 Atom     1 has atomic number  7 and mass  14.00307

 Molecular mass:    89.04768 amu.
 Principal axes and moments of inertia in atomic units:
                           1         2         3
     Eigenvalues --   369.09123 533.07659 872.17904
           X            0.99999  -0.00407  -0.00059
           Y            0.00406   0.99999  -0.00348
           Z            0.00060   0.00348   0.99999
 This molecule is an asymmetric top.
 Rotational symmetry number  1.
 Rotational temperatures (Kelvin)      0.23467     0.16248     0.09931
 Rotational constants (GHZ):           4.88969     3.38552     2.06923
    1 imaginary frequencies ignored.
 Zero-point vibrational energy     269627.6 (Joules/Mol)
                                   64.44255 (Kcal/Mol)
 Warning -- explicit consideration of   9 degrees of freedom as
           vibrations may cause significant error
 Vibrational temperatures:    225.28   275.14   349.90   471.04   556.61
          (Kelvin)            617.39   759.48   788.84   883.86  1021.97
                             1136.40  1310.33  1499.37  1516.75  1573.99
                             1586.83  1685.53  1873.50  2008.43  2103.41
                             2155.05  2176.15  2200.88  2259.08  2350.23
                             2416.61  4379.55  4463.94  4587.87  5037.17
                             5263.35  5323.48

 Zero-point correction=                           0.102696 (Hartree/Particle)
 Thermal correction to Energy=                    0.109189
 Thermal correction to Enthalpy=                  0.110133
 Thermal correction to Gibbs Free Energy=         0.072885
 Sum of electronic and zero-point Energies=           -323.454394
 Sum of electronic and thermal Energies=              -323.447900
 Sum of electronic and thermal Enthalpies=            -323.446956
 Sum of electronic and thermal Free Energies=         -323.484205

                     E (Thermal)             CV                S
                      KCal/Mol        Cal/Mol-Kelvin    Cal/Mol-Kelvin
 Total                   68.517             23.446             78.396
 Electronic               0.000              0.000              0.000
 Translational            0.889              2.981             39.372
 Rotational               0.889              2.981             26.642
 Vibrational             66.740             17.485             12.381
 Vibration     1          0.620              1.895              2.591
 Vibration     2          0.634              1.852              2.216
 Vibration     3          0.659              1.774              1.779
 Vibration     4          0.711              1.621              1.273
 Vibration     5          0.755              1.498              1.012
 Vibration     6          0.790              1.407              0.862
 Vibration     7          0.883              1.188              0.592
 Vibration     8          0.904              1.143              0.548
 Vibration     9          0.974              1.002              0.426

 Optimization completed.
    -- Stationary point found.
 Normal termination of Gaussian 09 at Sun Apr 10 14:05:14 2016.
