 Gaussian 09, Revision D.01,
 Gaussian 09:  ES64L-G09RevD.01 24-Apr-2013

 ------------------------------
 # opt freq b3lyp/6-311++g(d,p)
 ------------------------------

 -----------------------------
 Phe-R-opt-freq--6-311++g(d,p)
 -----------------------------
 Symbolic Z-matrix:
 Charge =  0 Multiplicity = 1

 SCF Done:  E(RB3LYP) =  -554.958483886     A.U. after   15 cycles
 Optimization completed.
    -- Stationary point found.

 1\1\GINC-KALI\FOpt\RB3LYP\6-311++G(d,p)\C9H11N1O2\ROOT\29-Mar-2016\0\\
 # opt freq b3lyp/6-311++g(d,p)\\Phe-R-opt-freq--6-311++g(d,p)\\0,1\C,1
 .370873,-0.121471,0.44953\H,1.031649,0.510785,1.272159\C,2.77721,0.372
 255,0.109456\O,3.246523,1.431957,0.441243\O,3.463309,-0.52015,-0.65278
 3\H,4.328156,-0.12873,-0.847482\C,0.446191,0.130734,-0.773521\H,0.6970
 48,1.105252,-1.202857\H,0.675502,-0.621374,-1.534948\C,-1.024566,0.104
 792,-0.425337\C,-1.74216,-1.095273,-0.380958\C,-1.696838,1.29503,-0.12
 4918\C,-3.094189,-1.105141,-0.04419\H,-1.235146,-2.026826,-0.602618\C,

 Normal termination of Gaussian 09 at Tue Mar 29 22:12:42 2016.

 ----------------------------------------------------------------------
 #N Geom=AllCheck Guess=TCheck SCRF=Check GenChk RB3LYP/6-311++G(d,p) F
 req
 ----------------------------------------------------------------------

 Structure from the checkpoint file:  "Phe-R-opt-freq-6-311gdp.chk"
 -----------------------------
 Phe-R-opt-freq--6-311++g(d,p)
 -----------------------------
 Charge =  0 Multiplicity = 1

                         Standard orientation:
 ---------------------------------------------------------------------
 Center     Atomic      Atomic             Coordinates (Angstroms)
 Number     Number       Type             X           Y           Z
 ---------------------------------------------------------------------
      1          6           0        1.370873   -0.121471    0.449530
      2          1           0        1.031649    0.510785    1.272159
      3          6           0        2.777210    0.372255    0.109456
      4          8           0        3.246523    1.431957    0.441243
      5          8           0        3.463309   -0.520150   -0.652783
      6          1           0        4.328156   -0.128730   -0.847482
      7          6           0        0.446191    0.130734   -0.773521
      8          1           0        0.697048    1.105252   -1.202857
      9          1           0        0.675502   -0.621374   -1.534948
     10          6           0       -1.024566    0.104792   -0.425337
     11          6           0       -1.742160   -1.095273   -0.380958
     12          6           0       -1.696838    1.295030   -0.124918
     13          6           0       -3.094189   -1.105141   -0.044190
     14          1           0       -1.235146   -2.026826   -0.602618
     15          6           0       -3.048809    1.289071    0.213755
     16          1           0       -1.158175    2.237168   -0.161220
     17          6           0       -3.752291    0.086759    0.255349
     18          1           0       -3.634203   -2.045219   -0.015737
     19          1           0       -3.552168    2.222766    0.439412
     20          1           0       -4.804874    0.079037    0.515450
     21          7           0        1.295236   -1.514383    0.877501
     22          1           0        1.776877   -2.121998    0.222538
     23          1           0        1.717501   -1.645181    1.790121
 ---------------------------------------------------------------------

 SCF Done:  E(RB3LYP) =  -554.958483886     A.U. after    1 cycles

 The electronic state is 1-A.
 Alpha  occ. eigenvalues --  -19.18678 -19.12950 -14.31140 -10.31562 -10.22942
 Alpha  occ. eigenvalues --  -10.18871 -10.18548 -10.17594 -10.17521 -10.17506
 Alpha  occ. eigenvalues --  -10.17446 -10.17294  -1.12652  -1.03747  -0.91138
 Alpha  occ. eigenvalues --   -0.86105  -0.78942  -0.74844  -0.73686  -0.67549
 Alpha  occ. eigenvalues --   -0.62041  -0.60952  -0.58760  -0.52525  -0.51993
 Alpha  occ. eigenvalues --   -0.50840  -0.49486  -0.47337  -0.46464  -0.45615
 Alpha  occ. eigenvalues --   -0.43843  -0.42709  -0.42336  -0.40478  -0.39063
 Alpha  occ. eigenvalues --   -0.37873  -0.36014  -0.34714  -0.34501  -0.34084
 Alpha  occ. eigenvalues --   -0.31541  -0.26125  -0.25330  -0.24838
 Alpha virt. eigenvalues --   -0.02787  -0.01703  -0.01463  -0.00847  -0.00207
 Alpha virt. eigenvalues --    0.00615   0.00987   0.01570   0.02542   0.03372
 Alpha virt. eigenvalues --    0.04079   0.04775   0.05514   0.06090   0.06453

 Mulliken charges:
               1
     1  C   -0.578741
     2  H    0.243849
     3  C   -0.158786
     4  O   -0.246524
     5  O   -0.165100
     6  H    0.289972
     7  C   -0.622707
     8  H    0.167780
     9  H    0.194570
    10  C    1.256586
    11  C   -0.168178
    12  C   -0.328808
    13  C   -0.298273
    14  H    0.159327
    15  C   -0.325179
    16  H    0.161570
    17  C   -0.303614
    18  H    0.171837
    19  H    0.165814
    20  H    0.151510
    21  N   -0.251922
    22  H    0.239424
    23  H    0.245593
 Sum of Mulliken charges =   0.00000

 Dipole moment (field-independent basis, Debye):
    X=              0.7363    Y=             -1.4613    Z=             -0.5194  Tot=              1.7168
 Quadrupole moment (field-independent basis, Debye-Ang):
   XX=            -65.1818   YY=            -71.7976   ZZ=            -72.2994
   XY=             -7.3668   XZ=             -4.1481   YZ=             -1.2661

  Exact polarizability: 154.990   2.369 122.062  -9.386   4.710  83.577
 Approx polarizability: 203.977   5.635 204.692 -17.856  13.957 128.438

                      1                      2                      3
                      A                      A                      A
 Frequencies --     19.8050                32.2202                56.6916
 Red. masses --      4.8109                 7.1830                 4.0744
 Frc consts  --      0.0011                 0.0044                 0.0077
 IR Inten    --      0.4585                 1.3654                 0.2263

                      4                      5                      6
                      A                      A                      A
 Frequencies --     85.4320               172.8801               247.4182
 Red. masses --      4.5735                 5.4978                 4.0490
 Frc consts  --      0.0197                 0.0968                 0.1460
 IR Inten    --      0.6495                 0.7091                 2.3159

                      7                      8                      9
                      A                      A                      A
 Frequencies --    262.0436               273.2441               318.6666
 Red. masses --      1.1776                 4.8908                 2.6208
 Frc consts  --      0.0476                 0.2151                 0.1568
 IR Inten    --     25.5481                 0.4817                10.6564

                     10                     11                     12
                      A                      A                      A
 Frequencies --    382.5444               413.1537               480.6699
 Red. masses --      2.2662                 2.8677                 3.5669
 Frc consts  --      0.1954                 0.2884                 0.4856
 IR Inten    --      3.5590                 0.0125                 1.9912

                     13                     14                     15
                      A                      A                      A
 Frequencies --    543.2448               563.1892               601.1127
 Red. masses --      4.3065                 3.3369                 1.2447
 Frc consts  --      0.7488                 0.6236                 0.2650
 IR Inten    --     11.7397                22.2452               127.2918

                     16                     17                     18
                      A                      A                      A
 Frequencies --    635.7180               644.9032               708.6426
 Red. masses --      6.2018                 3.3551                 1.7319
 Frc consts  --      1.4767                 0.8221                 0.5124
 IR Inten    --      0.1702                25.7103                43.3938

                     19                     20                     21
                      A                      A                      A
 Frequencies --    745.5919               770.1391               798.7342
 Red. masses --      3.0634                 2.6729                 2.1232
 Frc consts  --      1.0034                 0.9341                 0.7981
 IR Inten    --      0.7700                43.5245                97.4117

                     22                     23                     24
                      A                      A                      A
 Frequencies --    840.6761               851.7186               876.4424
 Red. masses --      3.0460                 1.2760                 2.1894
 Frc consts  --      1.2683                 0.5454                 0.9909
 IR Inten    --     38.8018                 1.4661                 7.2708

                     25                     26                     27
                      A                      A                      A
 Frequencies --    894.6464               938.2362               978.6749
 Red. masses --      1.9650                 1.8568                 1.7015
 Frc consts  --      0.9266                 0.9630                 0.9602
 IR Inten    --     36.5404                23.3218                 5.4300

                     28                     29                     30
                      A                      A                      A
 Frequencies --    981.3937               997.0300              1018.1036
 Red. masses --      1.6316                 1.2840                 6.2892
 Frc consts  --      0.9259                 0.7520                 3.8409
 IR Inten    --      5.8498                 0.0338                 0.0635

                     31                     32                     33
                      A                      A                      A
 Frequencies --   1050.2274              1093.2343              1116.6996
 Red. masses --      2.2162                 1.6084                 2.7436
 Frc consts  --      1.4402                 1.1326                 2.0158
 IR Inten    --      6.5340                 6.8583                19.4278

                     34                     35                     36
                      A                      A                      A
 Frequencies --   1141.8206              1166.8170              1181.3309
 Red. masses --      1.4327                 1.8054                 1.1086
 Frc consts  --      1.1005                 1.4482                 0.9115
 IR Inten    --     91.9419               152.9707                 0.4612

                     37                     38                     39
                      A                      A                      A
 Frequencies --   1204.0678              1224.2713              1288.4589
 Red. masses --      1.1464                 2.6555                 1.5208
 Frc consts  --      0.9792                 2.3450                 1.4875
 IR Inten    --      0.1629                 0.2908                11.4959

                     40                     41                     42
                      A                      A                      A
 Frequencies --   1289.2957              1334.6466              1346.0204
 Red. masses --      1.4404                 2.8027                 2.5798
 Frc consts  --      1.4107                 2.9414                 2.7538
 IR Inten    --      1.3170                29.8248                 9.8359

                     43                     44                     45
                      A                      A                      A
 Frequencies --   1357.8429              1365.2563              1405.8800
 Red. masses --      1.3869                 1.2967                 1.2615
 Frc consts  --      1.5065                 1.4240                 1.4690
 IR Inten    --      2.2416                 1.0382                 8.9063

                     46                     47                     48
                      A                      A                      A
 Frequencies --   1482.2258              1488.0417              1526.2781
 Red. masses --      1.8823                 1.1926                 2.2276
 Frc consts  --      2.4365                 1.5559                 3.0575
 IR Inten    --      4.7239                 7.5217                11.3228

                     49                     50                     51
                      A                      A                      A
 Frequencies --   1622.8937              1643.5764              1664.8479
 Red. masses --      5.4767                 5.6130                 1.0942
 Frc consts  --      8.4986                 8.9336                 1.7869
 IR Inten    --      0.6145                 4.7461                38.9069

                     52                     53                     54
                      A                      A                      A
 Frequencies --   1805.2545              3033.8558              3071.9251
 Red. masses --      9.6522                 1.0595                 1.1003
 Frc consts  --     18.5334                 5.7456                 6.1177
 IR Inten    --    334.3659                18.8849                 6.0909

                     55                     56                     57
                      A                      A                      A
 Frequencies --   3090.5936              3152.3779              3162.1533
 Red. masses --      1.0894                 1.0869                 1.0867
 Frc consts  --      6.1311                 6.3640                 6.4023
 IR Inten    --     13.6748                 6.5806                 0.2298

                     58                     59                     60
                      A                      A                      A
 Frequencies --   3172.6726              3183.2980              3190.9858
 Red. masses --      1.0911                 1.0942                 1.0967
 Frc consts  --      6.4710                 6.5330                 6.5793
 IR Inten    --     18.8813                28.7399                 7.9629

                     61                     62                     63
                      A                      A                      A
 Frequencies --   3508.1995              3588.8769              3759.1998
 Red. masses --      1.0487                 1.0942                 1.0646
 Frc consts  --      7.6048                 8.3039                 8.8639
 IR Inten    --      2.6846                 7.4534                81.1346

 - Thermochemistry -
 -------------------
 Temperature   298.150 Kelvin.  Pressure   1.00000 Atm.
 Atom     1 has atomic number  6 and mass  12.00000

 Molecular mass:   165.07898 amu.
 Principal axes and moments of inertia in atomic units:
                           1         2         3
     Eigenvalues --   765.302063948.893504384.13481
           X            0.99996  -0.00797  -0.00367
           Y            0.00793   0.99993  -0.00884
           Z            0.00374   0.00881   0.99995
 This molecule is an asymmetric top.
 Rotational symmetry number  1.
 Warning -- assumption of classical behavior for rotation
           may cause significant error
 Rotational temperatures (Kelvin)      0.11318     0.02193     0.01976
 Rotational constants (GHZ):           2.35821     0.45702     0.41165
 Zero-point vibrational energy     495529.7 (Joules/Mol)
                                  118.43443 (Kcal/Mol)
 Warning -- explicit consideration of  15 degrees of freedom as
           vibrations may cause significant error
 Vibrational temperatures:     28.49    46.36    81.57   122.92   248.74
          (Kelvin)            355.98   377.02   393.14   458.49   550.40
                              594.44   691.58   781.61   810.30   864.87
                              914.66   927.87  1019.58  1072.74  1108.06
                             1149.20  1209.54  1225.43  1261.00  1287.20
                             1349.91  1408.09  1412.00  1434.50  1464.82
                             1511.04  1572.92  1606.68  1642.82  1678.79
                             1699.67  1732.38  1761.45  1853.80  1855.01
                             1920.26  1936.62  1953.63  1964.30  2022.75
                             2132.59  2140.96  2195.97  2334.98  2364.74
                             2395.34  2597.36  4365.04  4419.81  4446.67
                             4535.56  4549.63  4564.76  4580.05  4591.11
                             5047.51  5163.59  5408.64

 Zero-point correction=                           0.188737 (Hartree/Particle)
 Thermal correction to Energy=                    0.200094
 Thermal correction to Enthalpy=                  0.201038
 Thermal correction to Gibbs Free Energy=         0.149121
 Sum of electronic and zero-point Energies=           -554.769747
 Sum of electronic and thermal Energies=              -554.758390
 Sum of electronic and thermal Enthalpies=            -554.757446
 Sum of electronic and thermal Free Energies=         -554.809363

                     E (Thermal)             CV                S
                      KCal/Mol        Cal/Mol-Kelvin    Cal/Mol-Kelvin
 Total                  125.561             42.395            109.269
 Electronic               0.000              0.000              0.000
 Translational            0.889              2.981             41.212
 Rotational               0.889              2.981             30.961
 Vibrational            123.783             36.433             37.096
 Vibration     1          0.593              1.986              6.654
 Vibration     2          0.594              1.983              5.688
 Vibration     3          0.596              1.975              4.569
 Vibration     4          0.601              1.959              3.762
 Vibration     5          0.626              1.876              2.404
 Vibration     6          0.661              1.767              1.749
 Vibration     7          0.669              1.742              1.648
 Vibration     8          0.676              1.723              1.576
 Vibration     9          0.705              1.638              1.317
 Vibration    10          0.752              1.507              1.029
 Vibration    11          0.777              1.442              0.916
 Vibration    12          0.837              1.293              0.708
 Vibration    13          0.898              1.154              0.558
 Vibration    14          0.919              1.111              0.518
 Vibration    15          0.959              1.029              0.448

 1\1\GINC-KALI\Freq\RB3LYP\6-311++G(d,p)\C9H11N1O2\ROOT\30-Mar-2016\0\\
 #N Geom=AllCheck Guess=TCheck SCRF=Check GenChk RB3LYP/6-311++G(d,p) F
 req\\Phe-R-opt-freq--6-311++g(d,p)\\0,1\C,1.370873,-0.121471,0.44953\H
 ,1.031649,0.510785,1.272159\C,2.77721,0.372255,0.109456\O,3.246523,1.4
 31957,0.441243\O,3.463309,-0.52015,-0.652783\H,4.328156,-0.12873,-0.84
 7482\C,0.446191,0.130734,-0.773521\H,0.697048,1.105252,-1.202857\H,0.6
 75502,-0.621374,-1.534948\C,-1.024566,0.104792,-0.425337\C,-1.74216,-1
 .095273,-0.380958\C,-1.696838,1.29503,-0.124918\C,-3.094189,-1.105141,

 Normal termination of Gaussian 09 at Wed Mar 30 00:19:15 2016.
