 Gaussian 09, Revision D.01,
 Gaussian 09:  ES64L-G09RevD.01 24-Apr-2013

 ------------------------------------------------
 #p opt=(calcfc,ts) freq rb3lyp/6-31g iop(1/11=1)
 ------------------------------------------------

 -------------------------
 Ala-S-opt-freq-tsa3-6-31g
 -------------------------
 Symbolic Z-matrix:
 Charge =  0 Multiplicity = 1

 SCF Done:  E(RB3LYP) =  -323.419992771     A.U. after   17 cycles
 SCF Done:  E(RB3LYP) =  -323.446440229     A.U. after   15 cycles
 SCF Done:  E(RB3LYP) =  -323.465451154     A.U. after   14 cycles
 SCF Done:  E(RB3LYP) =  -323.482502687     A.U. after   14 cycles
 SCF Done:  E(RB3LYP) =  -323.492406153     A.U. after   14 cycles
 SCF Done:  E(RB3LYP) =  -323.502737894     A.U. after   14 cycles
 SCF Done:  E(RB3LYP) =  -323.508475801     A.U. after   13 cycles
 SCF Done:  E(RB3LYP) =  -323.510843148     A.U. after   15 cycles
 SCF Done:  E(RB3LYP) =  -323.511575283     A.U. after   15 cycles
 SCF Done:  E(RB3LYP) =  -323.510554107     A.U. after   15 cycles
 SCF Done:  E(RB3LYP) =  -323.513477609     A.U. after   15 cycles
 SCF Done:  E(RB3LYP) =  -323.513432353     A.U. after   15 cycles
 SCF Done:  E(RB3LYP) =  -323.513536983     A.U. after   13 cycles
 SCF Done:  E(RB3LYP) =  -323.513341623     A.U. after   15 cycles
 SCF Done:  E(RB3LYP) =  -323.513501710     A.U. after   14 cycles
 SCF Done:  E(RB3LYP) =  -323.513528299     A.U. after   14 cycles
 SCF Done:  E(RB3LYP) =  -323.513536047     A.U. after   13 cycles
 SCF Done:  E(RB3LYP) =  -323.513535337     A.U. after   12 cycles
 SCF Done:  E(RB3LYP) =  -323.513536096     A.U. after   10 cycles
 Optimization completed.
    -- Stationary point found.
 Normal termination of Gaussian 09 at Tue Apr 12 08:35:50 2016.

 ----------------------------------------------------------------------
 #P Geom=AllCheck Guess=TCheck SCRF=Check Test GenChk RB3LYP/6-31G Freq
 ----------------------------------------------------------------------

 Structure from the checkpoint file:  "Ala-S-opt-freq-tsa3-6-31g.chk"
 -------------------------
 Ala-S-opt-freq-tsa3-6-31g
 -------------------------
 Charge =  0 Multiplicity = 1

                         Standard orientation:
 ---------------------------------------------------------------------
 Center     Atomic      Atomic             Coordinates (Angstroms)
 Number     Number       Type             X           Y           Z
 ---------------------------------------------------------------------
      1          7           0        1.151746   -1.348106    0.104613
      2          1           0        2.128768   -1.572435    0.023681
      3          6           0        0.681535   -0.077249   -0.010656
      4          1           0       -2.230832    1.244935    0.105778
      5          6           0        1.636993    1.073493   -0.050703
      6          6           0       -0.701467    0.070879   -0.140123
      7          1           0        2.409414    0.935589   -0.820288
      8          1           0        1.102475    2.002509   -0.249747
      9          1           0        2.150127    1.175219    0.915195
     10          8           0       -1.576499   -1.100646    0.022354
     11          1           0        0.466824   -2.079570    0.250057
     12          8           0       -1.258688    1.335024    0.147615
     13          1           0       -1.109872   -0.547274   -1.107828
 ---------------------------------------------------------------------

 SCF Done:  E(RB3LYP) =  -323.513536096     A.U. after    1 cycles

 The electronic state is 1-A.
 Alpha  occ. eigenvalues --  -19.15037 -19.10881 -14.35990 -10.26592 -10.25126
 Alpha  occ. eigenvalues --  -10.19421  -1.04750  -0.96071  -0.92665  -0.76983
 Alpha  occ. eigenvalues --   -0.68790  -0.58543  -0.55205  -0.50696  -0.48125
 Alpha  occ. eigenvalues --   -0.44150  -0.42499  -0.41294  -0.39661  -0.34797
 Alpha  occ. eigenvalues --   -0.32651  -0.29402  -0.25032  -0.17350
 Alpha virt. eigenvalues --   -0.03384   0.07292   0.08763   0.10879   0.12629
 Alpha virt. eigenvalues --    0.14460   0.16322   0.17480   0.20360   0.23353
 Alpha virt. eigenvalues --    0.24959   0.34930   0.38436   0.53676   0.55189

 Mulliken charges:
               1
     1  N   -0.755294
     2  H    0.321701
     3  C    0.419021
     4  H    0.379771
     5  C   -0.473711
     6  C    0.087180
     7  H    0.148964
     8  H    0.199434
     9  H    0.168638
    10  O   -0.579031
    11  H    0.351902
    12  O   -0.588385
    13  H    0.319810
 Sum of Mulliken charges =   0.00000

 Dipole moment (field-independent basis, Debye):
    X=              3.3550    Y=             -0.0947    Z=             -1.0415  Tot=              3.5142
 Quadrupole moment (field-independent basis, Debye-Ang):
   XX=            -31.0702   YY=            -36.5774   ZZ=            -36.6992
   XY=             -6.2398   XZ=              1.2526   YZ=             -0.1532

  Exact polarizability:  73.238   0.882  49.673   2.925   0.090  28.082
 Approx polarizability: 143.488  11.111  74.269   8.563  -0.403  38.642

 ******    1 imaginary frequencies (negative Signs) ******

                      1                      2                      3
                      A                      A                      A
 Frequencies --  -1482.4114                84.7830               159.2302
 Red. masses --      1.1863                 1.0454                 4.4100
 Frc consts  --      1.5360                 0.0044                 0.0659
 IR Inten    --   1107.0160                 1.5002                12.0285

                      4                      5                      6
                      A                      A                      A
 Frequencies --    224.4996               245.4629               317.8932
 Red. masses --      4.3115                 1.3971                 2.0841
 Frc consts  --      0.1280                 0.0496                 0.1241
 IR Inten    --      3.2275                84.1140                56.0602

                      7                      8                      9
                      A                      A                      A
 Frequencies --    383.8721               446.5241               476.3914
 Red. masses --      2.9580                 1.9220                 1.7537
 Frc consts  --      0.2568                 0.2258                 0.2345
 IR Inten    --     22.8354               102.7275                68.4340

                     10                     11                     12
                      A                      A                      A
 Frequencies --    547.7798               614.9973               681.5681
 Red. masses --      4.3083                 2.0108                 2.4135
 Frc consts  --      0.7617                 0.4481                 0.6606
 IR Inten    --     13.7262               124.6444                55.0905

                     13                     14                     15
                      A                      A                      A
 Frequencies --    726.4667               926.4267               980.1279
 Red. masses --      2.4744                 2.8752                 1.1422
 Frc consts  --      0.7694                 1.4539                 0.6465
 IR Inten    --     58.0408                62.0494                26.0602

                     16                     17                     18
                      A                      A                      A
 Frequencies --   1050.8721              1092.6467              1099.3637
 Red. masses --      1.3390                 1.6289                 1.6326
 Frc consts  --      0.8712                 1.1458                 1.1626
 IR Inten    --      4.7121                19.8945                38.6464

                     19                     20                     21
                      A                      A                      A
 Frequencies --   1164.9263              1325.3255              1456.8071
 Red. masses --      3.0502                 1.6550                 1.4063
 Frc consts  --      2.4388                 1.7128                 1.7584
 IR Inten    --    287.9476                29.5792                20.3119

                     22                     23                     24
                      A                      A                      A
 Frequencies --   1463.3613              1519.8200              1531.7516
 Red. masses --      2.8020                 1.0847                 1.0550
 Frc consts  --      3.5352                 1.4762                 1.4583
 IR Inten    --     25.3785                12.6295                12.3636

                     25                     26                     27
                      A                      A                      A
 Frequencies --   1645.0633              1682.6273              2362.8104
 Red. masses --      1.9999                 1.7906                 1.0755
 Frc consts  --      3.1887                 2.9869                 3.5377
 IR Inten    --     22.6863               132.1078                88.7308

                     28                     29                     30
                      A                      A                      A
 Frequencies --   3029.3951              3080.4361              3181.1377
 Red. masses --      1.0415                 1.0971                 1.0938
 Frc consts  --      5.6313                 6.1336                 6.5213
 IR Inten    --     39.1320                19.7783                 1.9061

                     31                     32                     33
                      A                      A                      A
 Frequencies --   3567.6273              3670.3685              3735.8279
 Red. masses --      1.0481                 1.0651                 1.0996
 Frc consts  --      7.8600                 8.4539                 9.0421
 IR Inten    --     43.2637                47.6238                45.6230

 - Thermochemistry -
 -------------------
 Temperature   298.150 Kelvin.  Pressure   1.00000 Atm.
 Atom     1 has atomic number  7 and mass  14.00307

 Molecular mass:    89.04768 amu.
 Principal axes and moments of inertia in atomic units:
                           1         2         3
     Eigenvalues --   378.40082 548.12405 900.37571
           X            0.99991   0.01189   0.00561
           Y           -0.01189   0.99993  -0.00018
           Z           -0.00562   0.00012   0.99998
 This molecule is an asymmetric top.
 Rotational symmetry number  1.
 Rotational temperatures (Kelvin)      0.22889     0.15802     0.09620
 Rotational constants (GHZ):           4.76939     3.29258     2.00443
    1 imaginary frequencies ignored.
 Zero-point vibrational energy     266026.7 (Joules/Mol)
                                   63.58191 (Kcal/Mol)
 Warning -- explicit consideration of  10 degrees of freedom as
           vibrations may cause significant error
 Vibrational temperatures:    121.98   229.10   323.00   353.17   457.38
          (Kelvin)            552.31   642.45   685.42   788.13   884.84
                              980.62  1045.22  1332.92  1410.18  1511.97
                             1572.07  1581.74  1676.07  1906.85  2096.02
                             2105.45  2186.68  2203.85  2366.88  2420.92
                             3399.55  4358.62  4432.05  4576.94  5133.01
                             5280.84  5375.02

 Zero-point correction=                           0.101324 (Hartree/Particle)
 Thermal correction to Energy=                    0.108587
 Thermal correction to Enthalpy=                  0.109532
 Thermal correction to Gibbs Free Energy=         0.070508
 Sum of electronic and zero-point Energies=           -323.412212
 Sum of electronic and thermal Energies=              -323.404949
 Sum of electronic and thermal Enthalpies=            -323.404005
 Sum of electronic and thermal Free Energies=         -323.443028

                     E (Thermal)             CV                S
                      KCal/Mol        Cal/Mol-Kelvin    Cal/Mol-Kelvin
 Total                   68.140             25.509             82.133
 Electronic               0.000              0.000              0.000
 Translational            0.889              2.981             39.372
 Rotational               0.889              2.981             26.726
 Vibrational             66.362             19.547             16.034
 Vibration     1          0.601              1.960              3.777
 Vibration     2          0.621              1.892              2.559
 Vibration     3          0.649              1.804              1.923
 Vibration     4          0.660              1.770              1.763
 Vibration     5          0.704              1.639              1.321
 Vibration     6          0.753              1.505              1.024
 Vibration     7          0.806              1.369              0.806
 Vibration     8          0.833              1.302              0.720
 Vibration     9          0.903              1.145              0.549
 Vibration    10          0.974              1.000              0.425

 Optimization completed.
    -- Stationary point found.
 Normal termination of Gaussian 09 at Tue Apr 12 08:36:53 2016.
