 Gaussian 09, Revision D.01,
 Gaussian 09:  ES64L-G09RevD.01 24-Apr-2013

 ----------------------------
 # opt=qst2 freq rb3lyp/6-31g
 ----------------------------

 ------------------------------
 Ala-S-opt-freq-qst2-tsa3-6-31g
 ------------------------------
 Symbolic Z-matrix:
 Charge =  0 Multiplicity = 1

 -----------------------
 Ala-S-opt-freq-p3-6-31g
 -----------------------
 Symbolic Z-matrix:
 Charge =  0 Multiplicity = 1

 SCF Done:  E(RB3LYP) =  -323.461560398     A.U. after   20 cycles
 SCF Done:  E(RB3LYP) =  -323.457554656     A.U. after   16 cycles
 SCF Done:  E(RB3LYP) =  -323.457728139     A.U. after   17 cycles
 SCF Done:  E(RB3LYP) =  -323.465659088     A.U. after   17 cycles
 SCF Done:  E(RB3LYP) =  -323.484887747     A.U. after   16 cycles
 SCF Done:  E(RB3LYP) =  -323.501340526     A.U. after   15 cycles
 SCF Done:  E(RB3LYP) =  -323.511636489     A.U. after   15 cycles
 SCF Done:  E(RB3LYP) =  -323.511621543     A.U. after   14 cycles
 SCF Done:  E(RB3LYP) =  -323.510927255     A.U. after   14 cycles
 SCF Done:  E(RB3LYP) =  -323.511697725     A.U. after   14 cycles
 SCF Done:  E(RB3LYP) =  -323.513114810     A.U. after   16 cycles
 SCF Done:  E(RB3LYP) =  -323.513417741     A.U. after   14 cycles
 SCF Done:  E(RB3LYP) =  -323.513485971     A.U. after   12 cycles
 SCF Done:  E(RB3LYP) =  -323.513532189     A.U. after   12 cycles
 SCF Done:  E(RB3LYP) =  -323.513534898     A.U. after   10 cycles
 SCF Done:  E(RB3LYP) =  -323.513535420     A.U. after    9 cycles
 SCF Done:  E(RB3LYP) =  -323.513535717     A.U. after    9 cycles
 SCF Done:  E(RB3LYP) =  -323.513535500     A.U. after    9 cycles
 SCF Done:  E(RB3LYP) =  -323.513535892     A.U. after    9 cycles
 Optimization completed.
    -- Stationary point found.
 Normal termination of Gaussian 09 at Thu Apr 14 14:13:27 2016.

 -----------------------------------------------------------------
 #N Geom=AllCheck Guess=TCheck SCRF=Check GenChk RB3LYP/6-31G Freq
 -----------------------------------------------------------------

 Structure from the checkpoint file:  "Ala-S-opt-freq-ts3-6-31g.chk"
 ------------------------------
 Ala-S-opt-freq-qst2-tsa3-6-31g
 ------------------------------
 Charge =  0 Multiplicity = 1

                         Standard orientation:
 ---------------------------------------------------------------------
 Center     Atomic      Atomic             Coordinates (Angstroms)
 Number     Number       Type             X           Y           Z
 ---------------------------------------------------------------------
      1          7           0       -1.151378   -1.348303   -0.104556
      2          1           0       -2.128292   -1.573022   -0.023232
      3          6           0       -0.681534   -0.077444    0.011149
      4          1           0        2.230329    1.246074   -0.104944
      5          6           0       -1.637026    1.073277    0.050560
      6          6           0        0.701503    0.071048    0.140282
      7          1           0       -2.416367    0.930243    0.812125
      8          1           0       -1.104197    2.000876    0.260485
      9          1           0       -2.141339    1.181956   -0.919264
     10          8           0        1.576591   -1.100549   -0.022626
     11          1           0       -0.466250   -2.079463   -0.250752
     12          8           0        1.258148    1.335292   -0.147621
     13          1           0        1.110195   -0.547765    1.107501
 ---------------------------------------------------------------------

 SCF Done:  E(RB3LYP) =  -323.513535892     A.U. after    1 cycles

 The electronic state is 1-A.
 Alpha  occ. eigenvalues --  -19.15041 -19.10882 -14.35989 -10.26589 -10.25123
 Alpha  occ. eigenvalues --  -10.19422  -1.04753  -0.96073  -0.92665  -0.76982
 Alpha  occ. eigenvalues --   -0.68788  -0.58545  -0.55205  -0.50699  -0.48125
 Alpha  occ. eigenvalues --   -0.44148  -0.42496  -0.41293  -0.39662  -0.34802
 Alpha  occ. eigenvalues --   -0.32652  -0.29402  -0.25033  -0.17349
 Alpha virt. eigenvalues --   -0.03375   0.07294   0.08761   0.10876   0.12629
 Alpha virt. eigenvalues --    0.14455   0.16298   0.17510   0.20349   0.23357
 Alpha virt. eigenvalues --    0.24964   0.34952   0.38443   0.53686   0.55199

 Mulliken charges:
               1
     1  N   -0.755280
     2  H    0.321667
     3  C    0.418894
     4  H    0.379768
     5  C   -0.473278
     6  C    0.087157
     7  H    0.148546
     8  H    0.199159
     9  H    0.169008
    10  O   -0.579042
    11  H    0.351900
    12  O   -0.588337
    13  H    0.319837
 Sum of Mulliken charges =   0.00000

 Dipole moment (field-independent basis, Debye):
    X=             -3.3529    Y=             -0.0933    Z=              1.0417  Tot=              3.5122
 Quadrupole moment (field-independent basis, Debye-Ang):
   XX=            -31.0748   YY=            -36.5715   ZZ=            -36.6990
   XY=              6.2437   XZ=              1.2596   YZ=              0.1557

  Exact polarizability:  73.218  -0.870  49.687   2.934  -0.101  28.078
 Approx polarizability: 143.403 -11.064  74.285   8.568   0.391  38.638

 ******    1 imaginary frequencies (negative Signs) ******

                      1                      2                      3
                      A                      A                      A
 Frequencies --  -1482.9281                84.8199               159.3883
 Red. masses --      1.1860                 1.0457                 4.4183
 Frc consts  --      1.5367                 0.0044                 0.0661
 IR Inten    --   1106.4826                 1.4580                11.8883

                      4                      5                      6
                      A                      A                      A
 Frequencies --    224.4027               245.6623               317.9916
 Red. masses --      4.3120                 1.4003                 2.0747
 Frc consts  --      0.1279                 0.0498                 0.1236
 IR Inten    --      3.1950                83.7304                56.5916

                      7                      8                      9
                      A                      A                      A
 Frequencies --    383.8003               446.7223               476.5209
 Red. masses --      2.9640                 1.9269                 1.7475
 Frc consts  --      0.2572                 0.2266                 0.2338
 IR Inten    --     22.6590               102.5143                68.9120

                     10                     11                     12
                      A                      A                      A
 Frequencies --    547.7193               615.0884               681.6449
 Red. masses --      4.3065                 2.0151                 2.4185
 Frc consts  --      0.7612                 0.4492                 0.6621
 IR Inten    --     13.6114               124.4694                55.0910

                     13                     14                     15
                      A                      A                      A
 Frequencies --    726.5898               926.3585               979.7896
 Red. masses --      2.4645                 2.8746                 1.1423
 Frc consts  --      0.7666                 1.4534                 0.6461
 IR Inten    --     58.2741                61.9918                26.1794

                     16                     17                     18
                      A                      A                      A
 Frequencies --   1051.0454              1092.6044              1099.2529
 Red. masses --      1.3387                 1.6265                 1.6357
 Frc consts  --      0.8713                 1.1440                 1.1645
 IR Inten    --      4.7141                19.2203                39.3063

                     19                     20                     21
                      A                      A                      A
 Frequencies --   1165.0570              1325.3445              1456.9563
 Red. masses --      3.0458                 1.6557                 1.4006
 Frc consts  --      2.4358                 1.7135                 1.7517
 IR Inten    --    288.1431                29.5161                20.0214

                     22                     23                     24
                      A                      A                      A
 Frequencies --   1463.5104              1519.8005              1531.5732
 Red. masses --      2.8170                 1.0846                 1.0561
 Frc consts  --      3.5549                 1.4760                 1.4596
 IR Inten    --     25.6421                12.5749                12.3084

                     25                     26                     27
                      A                      A                      A
 Frequencies --   1644.9836              1682.6752              2363.0125
 Red. masses --      2.0034                 1.7882                 1.0755
 Frc consts  --      3.1941                 2.9831                 3.5383
 IR Inten    --     22.5940               132.2690                88.6342

                     28                     29                     30
                      A                      A                      A
 Frequencies --   3029.5066              3080.4268              3180.9520
 Red. masses --      1.0414                 1.0972                 1.0938
 Frc consts  --      5.6311                 6.1342                 6.5206
 IR Inten    --     39.0059                19.9152                 1.9439

                     31                     32                     33
                      A                      A                      A
 Frequencies --   3567.3078              3670.4035              3735.5736
 Red. masses --      1.0481                 1.0651                 1.0996
 Frc consts  --      7.8587                 8.4541                 9.0407
 IR Inten    --     43.2277                47.6432                45.5541

 - Thermochemistry -
 -------------------
 Temperature   298.150 Kelvin.  Pressure   1.00000 Atm.
 Atom     1 has atomic number  7 and mass  14.00307

 Molecular mass:    89.04768 amu.
 Principal axes and moments of inertia in atomic units:
                           1         2         3
     Eigenvalues --   378.45203 548.01020 900.31614
           X            0.99991  -0.01188   0.00564
           Y            0.01188   0.99993   0.00018
           Z           -0.00564  -0.00011   0.99998
 This molecule is an asymmetric top.
 Rotational symmetry number  1.
 Rotational temperatures (Kelvin)      0.22886     0.15805     0.09620
 Rotational constants (GHZ):           4.76874     3.29326     2.00456
    1 imaginary frequencies ignored.
 Zero-point vibrational energy     266028.5 (Joules/Mol)
                                   63.58233 (Kcal/Mol)
 Warning -- explicit consideration of  10 degrees of freedom as
           vibrations may cause significant error
 Vibrational temperatures:    122.04   229.32   322.87   353.45   457.52
          (Kelvin)            552.20   642.73   685.61   788.04   884.97
                              980.73  1045.40  1332.82  1409.70  1512.22
                             1572.01  1581.58  1676.26  1906.87  2096.23
                             2105.66  2186.65  2203.59  2366.76  2420.99
                             3399.84  4358.78  4432.04  4576.67  5132.55
                             5280.89  5374.65

 Zero-point correction=                           0.101325 (Hartree/Particle)
 Thermal correction to Energy=                    0.108587
 Thermal correction to Enthalpy=                  0.109531
 Thermal correction to Gibbs Free Energy=         0.070510
 Sum of electronic and zero-point Energies=           -323.412211
 Sum of electronic and thermal Energies=              -323.404949
 Sum of electronic and thermal Enthalpies=            -323.404005
 Sum of electronic and thermal Free Energies=         -323.443026

                     E (Thermal)             CV                S
                      KCal/Mol        Cal/Mol-Kelvin    Cal/Mol-Kelvin
 Total                   68.139             25.508             82.128
 Electronic               0.000              0.000              0.000
 Translational            0.889              2.981             39.372
 Rotational               0.889              2.981             26.726
 Vibrational             66.362             19.546             16.029
 Vibration     1          0.601              1.960              3.776
 Vibration     2          0.621              1.892              2.557
 Vibration     3          0.649              1.804              1.923
 Vibration     4          0.660              1.770              1.762
 Vibration     5          0.704              1.639              1.320
 Vibration     6          0.753              1.505              1.024
 Vibration     7          0.806              1.368              0.806
 Vibration     8          0.833              1.302              0.720
 Vibration     9          0.903              1.145              0.549
 Vibration    10          0.975              1.000              0.424

 Normal termination of Gaussian 09 at Thu Apr 14 14:15:06 2016.
