 Gaussian 09, Revision D.01,
 Gaussian 09:  ES64L-G09RevD.01 24-Apr-2013

 -------------------
 # opt freq hf/6-31g
 -------------------

 ------------------------
 Ala-S-opt-freq-pa3-6-31g
 ------------------------
 Symbolic Z-matrix:
 Charge =  0 Multiplicity = 1

 SCF Done:  E(RHF) =  -321.479390864     A.U. after   16 cycles
 SCF Done:  E(RHF) =  -321.544347123     A.U. after   14 cycles
 SCF Done:  E(RHF) =  -321.596298596     A.U. after   13 cycles
 SCF Done:  E(RHF) =  -321.622349485     A.U. after   14 cycles
 SCF Done:  E(RHF) =  -321.639845966     A.U. after   14 cycles
 SCF Done:  E(RHF) =  -321.667747822     A.U. after   15 cycles
 SCF Done:  E(RHF) =  -321.695911736     A.U. after   14 cycles
 SCF Done:  E(RHF) =  -321.711363526     A.U. after   14 cycles
 SCF Done:  E(RHF) =  -321.715124418     A.U. after   13 cycles
 SCF Done:  E(RHF) =  -321.715751186     A.U. after   13 cycles
 SCF Done:  E(RHF) =  -321.716431907     A.U. after   11 cycles
 SCF Done:  E(RHF) =  -321.716451055     A.U. after   11 cycles
 SCF Done:  E(RHF) =  -321.716466250     A.U. after   11 cycles
 SCF Done:  E(RHF) =  -321.716472257     A.U. after   11 cycles
 SCF Done:  E(RHF) =  -321.716476459     A.U. after   11 cycles
 SCF Done:  E(RHF) =  -321.716477059     A.U. after   10 cycles
 SCF Done:  E(RHF) =  -321.716477833     A.U. after   10 cycles
 SCF Done:  E(RHF) =  -321.716479092     A.U. after   11 cycles
 SCF Done:  E(RHF) =  -321.716479566     A.U. after   11 cycles
 Optimization completed.
    -- Stationary point found.
 Normal termination of Gaussian 09 at Sat Apr 16 13:40:07 2016.

 --------------------------------------------------------------
 #N Geom=AllCheck Guess=TCheck SCRF=Check GenChk RHF/6-31G Freq
 --------------------------------------------------------------

 Structure from the checkpoint file:  "Ala-S-opt-freq-pa3-6-31g.chk"
 ------------------------
 Ala-S-opt-freq-pa3-6-31g
 ------------------------
 Charge =  0 Multiplicity = 1

                         Standard orientation:
 ---------------------------------------------------------------------
 Center     Atomic      Atomic             Coordinates (Angstroms)
 Number     Number       Type             X           Y           Z
 ---------------------------------------------------------------------
      1          7           0        1.414497    1.116640    0.047334
      2          1           0        2.356323    1.168061    0.353058
      3          6           0        0.669863   -0.070549    0.381617
      4          1           0       -2.457716   -0.811272    0.011476
      5          6           0        1.237415   -1.296701   -0.342834
      6          6           0       -0.776104    0.160564    0.029841
      7          1           0        2.277959   -1.421111   -0.068256
      8          1           0        0.700345   -2.196211   -0.078564
      9          1           0        1.190680   -1.147824   -1.413520
     10          8           0       -1.259681    1.210766   -0.332421
     11          1           0        0.919309    1.975737   -0.001524
     12          8           0       -1.533102   -0.943457    0.207570
     13          1           0        0.666850   -0.282207    1.453052
 ---------------------------------------------------------------------

 SCF Done:  E(RHF) =  -321.716479566     A.U. after    1 cycles

 The electronic state is 1-A.
 Alpha  occ. eigenvalues --  -20.62055 -20.57352 -15.53180 -11.41300 -11.28981
 Alpha  occ. eigenvalues --  -11.22225  -1.49185  -1.38369  -1.19899  -1.02785
 Alpha  occ. eigenvalues --   -0.92002  -0.81490  -0.72532  -0.70225  -0.66686
 Alpha  occ. eigenvalues --   -0.63298  -0.62049  -0.58446  -0.54535  -0.54189
 Alpha  occ. eigenvalues --   -0.52235  -0.48057  -0.45267  -0.37296
 Alpha virt. eigenvalues --    0.16122   0.21665   0.23850   0.28766   0.29066
 Alpha virt. eigenvalues --    0.30775   0.32785   0.34221   0.38842   0.42249
 Alpha virt. eigenvalues --    0.45237   0.49531   0.56014   0.74008   0.77203

 Mulliken charges:
               1
     1  N   -0.885503
     2  H    0.335553
     3  C   -0.021971
     4  H    0.441939
     5  C   -0.425382
     6  C    0.772771
     7  H    0.158112
     8  H    0.181176
     9  H    0.176602
    10  O   -0.560374
    11  H    0.370922
    12  O   -0.736251
    13  H    0.192407
 Sum of Mulliken charges =   0.00000

 Dipole moment (field-independent basis, Debye):
    X=              0.5928    Y=             -1.3881    Z=              1.4206  Tot=              2.0727
 Quadrupole moment (field-independent basis, Debye-Ang):
   XX=            -30.1978   YY=            -39.7468   ZZ=            -37.2197
   XY=              3.8320   XZ=              1.8265   YZ=              2.9514

  Exact polarizability:  42.663  -0.629  44.086   1.581  -3.135  28.928
 Approx polarizability:  33.690  -0.952  39.220   1.698  -4.504  25.794

                      1                      2                      3
                      A                      A                      A
 Frequencies --     62.8985               189.7090               254.7677
 Red. masses --      4.8691                 1.0827                 1.1940
 Frc consts  --      0.0113                 0.0230                 0.0457
 IR Inten    --      1.4398                35.0631                 0.9225
 Raman Activ --      0.5919                 3.2650                 0.0853

                      4                      5                      6
                      A                      A                      A
 Frequencies --    287.6706               355.1694               448.7638
 Red. masses --      2.7226                 2.7909                 2.8952
 Frc consts  --      0.1327                 0.2074                 0.3435
 IR Inten    --      1.2156                15.6546                 9.0652
 Raman Activ --      0.3708                 0.9408                 1.8152

                      7                      8                      9
                      A                      A                      A
 Frequencies --    489.9988               546.2239               615.6063
 Red. masses --      1.3299                 3.6249                 1.6913
 Frc consts  --      0.1881                 0.6372                 0.3776
 IR Inten    --    286.5124                51.1740                63.8220
 Raman Activ --      3.8149                 1.2290                 4.4249

                     10                     11                     12
                      A                      A                      A
 Frequencies --    670.7283               787.4503               871.2949
 Red. masses --      2.0175                 4.0951                 2.7005
 Frc consts  --      0.5348                 1.4961                 1.2079
 IR Inten    --    195.0810                73.1581                11.1877
 Raman Activ --      2.9541                 5.3346                 7.0257

                     13                     14                     15
                      A                      A                      A
 Frequencies --   1019.5179              1124.1745              1221.0891
 Red. masses --      2.3261                 1.4894                 1.9802
 Frc consts  --      1.4245                 1.1090                 1.7396
 IR Inten    --      1.0587                 0.4284                36.1005
 Raman Activ --      6.9899                 5.3310                 4.2930

                     16                     17                     18
                      A                      A                      A
 Frequencies --   1237.0129              1305.9494              1322.4265
 Red. masses --      2.3776                 1.5999                 1.5844
 Frc consts  --      2.1436                 1.6076                 1.6325
 IR Inten    --    297.9950                14.3211                19.0425
 Raman Activ --      2.3714                 6.1917                 8.0767

                     19                     20                     21
                      A                      A                      A
 Frequencies --   1452.9525              1496.8839              1562.0982
 Red. masses --      1.8924                 1.3691                 1.7111
 Frc consts  --      2.3538                 1.8074                 2.4601
 IR Inten    --     60.2251                 8.6465                 8.6868
 Raman Activ --      3.0247                 8.2330                 3.9088

                     22                     23                     24
                      A                      A                      A
 Frequencies --   1581.1650              1652.8916              1656.0100
 Red. masses --      1.2936                 1.0453                 1.0858
 Frc consts  --      1.9055                 1.6826                 1.7544
 IR Inten    --      5.5272                 6.1224                12.2896
 Raman Activ --      2.9630                20.1437                13.4585

                     25                     26                     27
                      A                      A                      A
 Frequencies --   1819.5286              1915.0430              3117.7219
 Red. masses --      1.1603                 6.8606                 1.0808
 Frc consts  --      2.2632                14.8242                 6.1894
 IR Inten    --    112.1711               297.8799                50.1743
 Raman Activ --      3.0381                 6.6521               111.8435

                     28                     29                     30
                      A                      A                      A
 Frequencies --   3208.6909              3280.4992              3308.6388
 Red. masses --      1.0358                 1.1004                 1.1022
 Frc consts  --      6.2830                 6.9770                 7.1091
 IR Inten    --     26.0076                31.3819                20.7151
 Raman Activ --    115.4136                65.8476                56.6671

                     31                     32                     33
                      A                      A                      A
 Frequencies --   3832.8549              3965.0068              3994.6639
 Red. masses --      1.0455                 1.1025                 1.0655
 Frc consts  --      9.0498                10.2124                10.0178
 IR Inten    --     17.2470                27.8026               109.1006
 Raman Activ --     79.1060                44.9188               100.6244

 - Thermochemistry -
 -------------------
 Temperature   298.150 Kelvin.  Pressure   1.00000 Atm.
 Atom     1 has atomic number  7 and mass  14.00307

 Molecular mass:    89.04768 amu.
 Principal axes and moments of inertia in atomic units:
                           1         2         3
     Eigenvalues --   356.46730 541.57261 827.39672
           X            1.00000   0.00113  -0.00079
           Y           -0.00111   0.99973   0.02320
           Z            0.00081  -0.02320   0.99973
 This molecule is an asymmetric top.
 Rotational symmetry number  1.
 Rotational temperatures (Kelvin)      0.24298     0.15993     0.10468
 Rotational constants (GHZ):           5.06285     3.33241     2.18123
 Zero-point vibrational energy     302984.8 (Joules/Mol)
                                   72.41510 (Kcal/Mol)
 Warning -- explicit consideration of   9 degrees of freedom as
           vibrations may cause significant error
 Vibrational temperatures:     90.50   272.95   366.55   413.89   511.01
          (Kelvin)            645.67   705.00   785.89   885.72   965.03
                             1132.96  1253.60  1466.86  1617.43  1756.87
                             1779.78  1878.97  1902.67  2090.47  2153.68
                             2247.51  2274.94  2378.14  2382.63  2617.89
                             2755.32  4485.70  4616.58  4719.90  4760.39
                             5514.62  5704.75  5747.42

 Zero-point correction=                           0.115401 (Hartree/Particle)
 Thermal correction to Energy=                    0.122130
 Thermal correction to Enthalpy=                  0.123075
 Thermal correction to Gibbs Free Energy=         0.084888
 Sum of electronic and zero-point Energies=           -321.601079
 Sum of electronic and thermal Energies=              -321.594349
 Sum of electronic and thermal Enthalpies=            -321.593405
 Sum of electronic and thermal Free Energies=         -321.631592

                     E (Thermal)             CV                S
                      KCal/Mol        Cal/Mol-Kelvin    Cal/Mol-Kelvin
 Total                   76.638             23.364             80.371
 Electronic               0.000              0.000              0.000
 Translational            0.889              2.981             39.372
 Rotational               0.889              2.981             26.571
 Vibrational             74.861             17.403             14.427
 Vibration     1          0.597              1.972              4.364
 Vibration     2          0.633              1.854              2.231
 Vibration     3          0.665              1.755              1.697
 Vibration     4          0.685              1.697              1.488
 Vibration     5          0.731              1.565              1.143
 Vibration     6          0.808              1.364              0.800
 Vibration     7          0.846              1.272              0.684
 Vibration     8          0.901              1.148              0.552
 Vibration     9          0.975              0.999              0.424

 Optimization completed.
    -- Stationary point found.
 Normal termination of Gaussian 09 at Sat Apr 16 13:40:21 2016.
