 Gaussian 09, Revision D.01,
 Gaussian 09:  ES64L-G09RevD.01 24-Apr-2013

 ------------------------------------------------
 #p opt=(calcfc,ts) freq rb3lyp/6-31g iop(1/11=1)
 ------------------------------------------------

 -------------------------
 Ala-S-opt-freq-tsa3-6-31g
 -------------------------
 Symbolic Z-matrix:
 Charge =  0 Multiplicity = 1

 SCF Done:  E(RB3LYP) =  -323.450611225     A.U. after   17 cycles
 SCF Done:  E(RB3LYP) =  -323.471570359     A.U. after   15 cycles
 SCF Done:  E(RB3LYP) =  -323.491563104     A.U. after   14 cycles
 SCF Done:  E(RB3LYP) =  -323.508036644     A.U. after   14 cycles
 SCF Done:  E(RB3LYP) =  -323.512671478     A.U. after   14 cycles
 SCF Done:  E(RB3LYP) =  -323.508810769     A.U. after   15 cycles
 SCF Done:  E(RB3LYP) =  -323.500948555     A.U. after   15 cycles
 SCF Done:  E(RB3LYP) =  -323.508869026     A.U. after   15 cycles
 SCF Done:  E(RB3LYP) =  -323.511612106     A.U. after   15 cycles
 SCF Done:  E(RB3LYP) =  -323.508845500     A.U. after   16 cycles
 SCF Done:  E(RB3LYP) =  -323.513482819     A.U. after   13 cycles
 SCF Done:  E(RB3LYP) =  -323.513533003     A.U. after   13 cycles
 SCF Done:  E(RB3LYP) =  -323.513536059     A.U. after   10 cycles
 SCF Done:  E(RB3LYP) =  -323.513341932     A.U. after   15 cycles
 SCF Done:  E(RB3LYP) =  -323.513507732     A.U. after   14 cycles
 SCF Done:  E(RB3LYP) =  -323.513531956     A.U. after   14 cycles
 SCF Done:  E(RB3LYP) =  -323.513535171     A.U. after   12 cycles
 SCF Done:  E(RB3LYP) =  -323.513536083     A.U. after    9 cycles
 SCF Done:  E(RB3LYP) =  -323.513536111     A.U. after    8 cycles
 Optimization completed.
    -- Stationary point found.
 Normal termination of Gaussian 09 at Thu Apr 14 09:06:12 2016.

 ----------------------------------------------------------------------
 #P Geom=AllCheck Guess=TCheck SCRF=Check Test GenChk RB3LYP/6-31G Freq
 ----------------------------------------------------------------------

 Structure from the checkpoint file:  "Ala-S-opt-freq-tsa3-6-31g.chk"
 -------------------------
 Ala-S-opt-freq-tsa3-6-31g
 -------------------------
 Charge =  0 Multiplicity = 1

                         Standard orientation:
 ---------------------------------------------------------------------
 Center     Atomic      Atomic             Coordinates (Angstroms)
 Number     Number       Type             X           Y           Z
 ---------------------------------------------------------------------
      1          7           0       -1.151524   -1.348172   -0.104531
      2          1           0       -2.128531   -1.572720   -0.023844
      3          6           0       -0.681581   -0.077303    0.010666
      4          1           0        2.230790    1.245004   -0.106756
      5          6           0       -1.637110    1.073378    0.050645
      6          6           0        0.701497    0.070990    0.140229
      7          1           0       -2.409605    0.935391    0.820134
      8          1           0       -1.102639    2.002402    0.249815
      9          1           0       -2.150189    1.175210   -0.915276
     10          8           0        1.576478   -1.100594   -0.022367
     11          1           0       -0.466461   -2.079413   -0.250585
     12          8           0        1.258599    1.335159   -0.147473
     13          1           0        1.109850   -0.547582    1.107703
 ---------------------------------------------------------------------

 SCF Done:  E(RB3LYP) =  -323.513536111     A.U. after    1 cycles

 The electronic state is 1-A.
 Alpha  occ. eigenvalues --  -19.15037 -19.10884 -14.35989 -10.26591 -10.25125
 Alpha  occ. eigenvalues --  -10.19420  -1.04750  -0.96074  -0.92667  -0.76981
 Alpha  occ. eigenvalues --   -0.68787  -0.58544  -0.55205  -0.50694  -0.48125
 Alpha  occ. eigenvalues --   -0.44150  -0.42498  -0.41295  -0.39661  -0.34796
 Alpha  occ. eigenvalues --   -0.32649  -0.29405  -0.25034  -0.17349
 Alpha virt. eigenvalues --   -0.03380   0.07293   0.08764   0.10881   0.12629
 Alpha virt. eigenvalues --    0.14461   0.16322   0.17481   0.20359   0.23355
 Alpha virt. eigenvalues --    0.24962   0.34932   0.38430   0.53677   0.55188

 Mulliken charges:
               1
     1  N   -0.755325
     2  H    0.321705
     3  C    0.418995
     4  H    0.379784
     5  C   -0.473709
     6  C    0.087260
     7  H    0.148966
     8  H    0.199434
     9  H    0.168623
    10  O   -0.579064
    11  H    0.351908
    12  O   -0.588442
    13  H    0.319866
 Sum of Mulliken charges =   0.00000

 Dipole moment (field-independent basis, Debye):
    X=             -3.3542    Y=             -0.0955    Z=              1.0376  Tot=              3.5123
 Quadrupole moment (field-independent basis, Debye-Ang):
   XX=            -31.0692   YY=            -36.5782   ZZ=            -36.6984
   XY=              6.2391   XZ=              1.2488   YZ=              0.1525

  Exact polarizability:  73.234  -0.880  49.673   2.921  -0.091  28.081
 Approx polarizability: 143.458 -11.095  74.266   8.556   0.403  38.639

 ******    1 imaginary frequencies (negative Signs) ******

                      1                      2                      3
                      A                      A                      A
 Frequencies --  -1482.8182                84.6883               159.1303
 Red. masses --      1.1862                 1.0454                 4.4046
 Frc consts  --      1.5367                 0.0044                 0.0657
 IR Inten    --   1107.2916                 1.5255                12.1486

                      4                      5                      6
                      A                      A                      A
 Frequencies --    224.5096               245.2352               317.7821
 Red. masses --      4.3109                 1.3965                 2.0866
 Frc consts  --      0.1280                 0.0495                 0.1242
 IR Inten    --      3.2224                84.2350                55.8303

                      7                      8                      9
                      A                      A                      A
 Frequencies --    383.8550               446.5189               476.4779
 Red. masses --      2.9636                 1.9295                 1.7462
 Frc consts  --      0.2573                 0.2267                 0.2336
 IR Inten    --     22.7634               101.9783                69.1428

                     10                     11                     12
                      A                      A                      A
 Frequencies --    547.8017               615.0077               681.5769
 Red. masses --      4.3057                 2.0127                 2.4163
 Frc consts  --      0.7613                 0.4485                 0.6613
 IR Inten    --     13.7117               124.6397                55.0618

                     13                     14                     15
                      A                      A                      A
 Frequencies --    726.5655               926.4176               979.9405
 Red. masses --      2.4687                 2.8727                 1.1426
 Frc consts  --      0.7678                 1.4526                 0.6465
 IR Inten    --     58.1143                61.9511                26.1750

                     16                     17                     18
                      A                      A                      A
 Frequencies --   1050.9248              1092.6239              1099.3269
 Red. masses --      1.3389                 1.6292                 1.6314
 Frc consts  --      0.8713                 1.1459                 1.1616
 IR Inten    --      4.7188                19.9512                38.5074

                     19                     20                     21
                      A                      A                      A
 Frequencies --   1164.9782              1325.3059              1456.8981
 Red. masses --      3.0532                 1.6553                 1.3922
 Frc consts  --      2.4414                 1.7130                 1.7410
 IR Inten    --    287.9709                29.5697                19.8215

                     22                     23                     24
                      A                      A                      A
 Frequencies --   1463.5209              1519.8180              1531.7487
 Red. masses --      2.8584                 1.0849                 1.0550
 Frc consts  --      3.6072                 1.4765                 1.4584
 IR Inten    --     25.8640                12.6294                12.3632

                     25                     26                     27
                      A                      A                      A
 Frequencies --   1644.8902              1682.6222              2363.0778
 Red. masses --      2.0076                 1.7844                 1.0755
 Frc consts  --      3.2004                 2.9765                 3.5385
 IR Inten    --     22.3517               132.5235                88.7097

                     28                     29                     30
                      A                      A                      A
 Frequencies --   3029.4070              3080.4224              3181.0793
 Red. masses --      1.0415                 1.0971                 1.0938
 Frc consts  --      5.6312                 6.1336                 6.5211
 IR Inten    --     39.1288                19.7946                 1.9080

                     31                     32                     33
                      A                      A                      A
 Frequencies --   3567.3582              3670.3215              3735.6053
 Red. masses --      1.0481                 1.0651                 1.0996
 Frc consts  --      7.8588                 8.4537                 9.0409
 IR Inten    --     43.2418                47.6631                45.6428

 - Thermochemistry -
 -------------------
 Temperature   298.150 Kelvin.  Pressure   1.00000 Atm.
 Atom     1 has atomic number  7 and mass  14.00307

 Molecular mass:    89.04768 amu.
 Principal axes and moments of inertia in atomic units:
                           1         2         3
     Eigenvalues --   378.41254 548.10133 900.36772
           X            0.99991  -0.01191   0.00560
           Y            0.01191   0.99993   0.00018
           Z           -0.00561  -0.00011   0.99998
 This molecule is an asymmetric top.
 Rotational symmetry number  1.
 Rotational temperatures (Kelvin)      0.22889     0.15803     0.09620
 Rotational constants (GHZ):           4.76924     3.29271     2.00445
    1 imaginary frequencies ignored.
 Zero-point vibrational energy     266022.2 (Joules/Mol)
                                   63.58083 (Kcal/Mol)
 Warning -- explicit consideration of  10 degrees of freedom as
           vibrations may cause significant error
 Vibrational temperatures:    121.85   228.95   323.02   352.84   457.22
          (Kelvin)            552.28   642.44   685.54   788.16   884.86
                              980.64  1045.36  1332.91  1409.91  1512.04
                             1572.04  1581.68  1676.14  1906.82  2096.15
                             2105.68  2186.68  2203.84  2366.63  2420.91
                             3399.94  4358.64  4432.04  4576.86  5132.63
                             5280.77  5374.70

 Zero-point correction=                           0.101322 (Hartree/Particle)
 Thermal correction to Energy=                    0.108586
 Thermal correction to Enthalpy=                  0.109531
 Thermal correction to Gibbs Free Energy=         0.070504
 Sum of electronic and zero-point Energies=           -323.412214
 Sum of electronic and thermal Energies=              -323.404950
 Sum of electronic and thermal Enthalpies=            -323.404006
 Sum of electronic and thermal Free Energies=         -323.443032

                     E (Thermal)             CV                S
                      KCal/Mol        Cal/Mol-Kelvin    Cal/Mol-Kelvin
 Total                   68.139             25.509             82.138
 Electronic               0.000              0.000              0.000
 Translational            0.889              2.981             39.372
 Rotational               0.889              2.981             26.726
 Vibrational             66.361             19.548             16.039
 Vibration     1          0.601              1.960              3.779
 Vibration     2          0.621              1.892              2.560
 Vibration     3          0.649              1.804              1.922
 Vibration     4          0.660              1.771              1.765
 Vibration     5          0.704              1.640              1.321
 Vibration     6          0.753              1.505              1.024
 Vibration     7          0.806              1.369              0.806
 Vibration     8          0.833              1.302              0.720
 Vibration     9          0.903              1.144              0.549
 Vibration    10          0.975              1.000              0.425

 Optimization completed.
    -- Stationary point found.
 Normal termination of Gaussian 09 at Thu Apr 14 09:08:41 2016.
