 Gaussian 09, Revision D.01,
 Gaussian 09:  ES64L-G09RevD.01 24-Apr-2013

 ------------------------------------------------
 #p opt=(calcfc,ts) freq rb3lyp/6-31g iop(1/11=1)
 ------------------------------------------------

 -------------------------
 Ala-S-opt-freq-tsa3-6-31g
 -------------------------
 Symbolic Z-matrix:
 Charge =  0 Multiplicity = 1

 SCF Done:  E(RB3LYP) =  -323.442501706     A.U. after   19 cycles
 SCF Done:  E(RB3LYP) =  -323.464213965     A.U. after   16 cycles
 SCF Done:  E(RB3LYP) =  -323.483293880     A.U. after   15 cycles
 SCF Done:  E(RB3LYP) =  -323.500264937     A.U. after   15 cycles
 SCF Done:  E(RB3LYP) =  -323.508833908     A.U. after   15 cycles
 SCF Done:  E(RB3LYP) =  -323.509548809     A.U. after   15 cycles
 SCF Done:  E(RB3LYP) =  -323.504419938     A.U. after   15 cycles
 SCF Done:  E(RB3LYP) =  -323.511346466     A.U. after   15 cycles
 SCF Done:  E(RB3LYP) =  -323.515587052     A.U. after   15 cycles
 SCF Done:  E(RB3LYP) =  -323.513742282     A.U. after   14 cycles
 SCF Done:  E(RB3LYP) =  -323.513498226     A.U. after   13 cycles
 SCF Done:  E(RB3LYP) =  -323.513535011     A.U. after   14 cycles
 SCF Done:  E(RB3LYP) =  -323.513534022     A.U. after   12 cycles
 SCF Done:  E(RB3LYP) =  -323.513535520     A.U. after   12 cycles
 SCF Done:  E(RB3LYP) =  -323.513427748     A.U. after   15 cycles
 SCF Done:  E(RB3LYP) =  -323.513507741     A.U. after   14 cycles
 SCF Done:  E(RB3LYP) =  -323.513530479     A.U. after   13 cycles
 SCF Done:  E(RB3LYP) =  -323.513535539     A.U. after   13 cycles
 SCF Done:  E(RB3LYP) =  -323.513536132     A.U. after   12 cycles
 Optimization completed.
    -- Stationary point found.
 Normal termination of Gaussian 09 at Thu Apr 14 00:15:32 2016.

 ----------------------------------------------------------------------
 #P Geom=AllCheck Guess=TCheck SCRF=Check Test GenChk RB3LYP/6-31G Freq
 ----------------------------------------------------------------------

 Structure from the checkpoint file:  "Ala-S-opt-freq-tsa3-6-31g.chk"
 -------------------------
 Ala-S-opt-freq-tsa3-6-31g
 -------------------------
 Charge =  0 Multiplicity = 1

                         Standard orientation:
 ---------------------------------------------------------------------
 Center     Atomic      Atomic             Coordinates (Angstroms)
 Number     Number       Type             X           Y           Z
 ---------------------------------------------------------------------
      1          7           0       -1.151927   -1.348106   -0.104679
      2          1           0       -2.128913   -1.572499   -0.023279
      3          6           0       -0.681644   -0.077386    0.010993
      4          1           0        2.230815    1.245350   -0.105992
      5          6           0       -1.636640    1.073766    0.050637
      6          6           0        0.701508    0.070930    0.140295
      7          1           0       -2.148499    1.176492   -0.915839
      8          1           0       -2.410077    0.935655    0.819131
      9          1           0       -1.101970    2.002429    0.251019
     10          8           0        1.576344   -1.100786   -0.022417
     11          1           0       -0.467029   -2.079449   -0.251019
     12          8           0        1.258617    1.334992   -0.147617
     13          1           0        1.110135   -0.548753    1.107450
 ---------------------------------------------------------------------

 SCF Done:  E(RB3LYP) =  -323.513536132     A.U. after    1 cycles

 The electronic state is 1-A.
 Alpha  occ. eigenvalues --  -19.15042 -19.10896 -14.35983 -10.26592 -10.25118
 Alpha  occ. eigenvalues --  -10.19415  -1.04754  -0.96078  -0.92671  -0.76977
 Alpha  occ. eigenvalues --   -0.68781  -0.58542  -0.55201  -0.50694  -0.48125
 Alpha  occ. eigenvalues --   -0.44146  -0.42493  -0.41294  -0.39658  -0.34802
 Alpha  occ. eigenvalues --   -0.32646  -0.29413  -0.25044  -0.17348
 Alpha virt. eigenvalues --   -0.03369   0.07295   0.08759   0.10878   0.12630
 Alpha virt. eigenvalues --    0.14461   0.16321   0.17488   0.20356   0.23357
 Alpha virt. eigenvalues --    0.24964   0.34937   0.38432   0.53680   0.55193

 Mulliken charges:
               1
     1  N   -0.755409
     2  H    0.321681
     3  C    0.418877
     4  H    0.379788
     5  C   -0.473617
     6  C    0.087359
     7  H    0.168649
     8  H    0.148855
     9  H    0.199377
    10  O   -0.578973
    11  H    0.351864
    12  O   -0.588430
    13  H    0.319979
 Sum of Mulliken charges =   0.00000

 Dipole moment (field-independent basis, Debye):
    X=             -3.3489    Y=             -0.0951    Z=              1.0407  Tot=              3.5081
 Quadrupole moment (field-independent basis, Debye-Ang):
   XX=            -31.0670   YY=            -36.5750   ZZ=            -36.7001
   XY=              6.2394   XZ=              1.2515   YZ=              0.1518

  Exact polarizability:  73.224  -0.875  49.674   2.923  -0.091  28.083
 Approx polarizability: 143.377 -11.058  74.256   8.548   0.408  38.644

 ******    1 imaginary frequencies (negative Signs) ******

                      1                      2                      3
                      A                      A                      A
 Frequencies --  -1484.5267                84.6894               159.1661
 Red. masses --      1.1858                 1.0456                 4.4022
 Frc consts  --      1.5397                 0.0044                 0.0657
 IR Inten    --   1107.7608                 1.5170                12.2086

                      4                      5                      6
                      A                      A                      A
 Frequencies --    224.5454               245.1893               317.8623
 Red. masses --      4.3060                 1.3979                 2.0854
 Frc consts  --      0.1279                 0.0495                 0.1241
 IR Inten    --      3.3174                83.8606                55.9341

                      7                      8                      9
                      A                      A                      A
 Frequencies --    383.8213               446.4429               476.3586
 Red. masses --      2.9606                 1.9191                 1.7555
 Frc consts  --      0.2570                 0.2254                 0.2347
 IR Inten    --     22.8849               103.0818                68.4766

                     10                     11                     12
                      A                      A                      A
 Frequencies --    547.8205               614.8542               681.5068
 Red. masses --      4.3081                 2.0127                 2.4141
 Frc consts  --      0.7618                 0.4483                 0.6606
 IR Inten    --     13.6352               124.5376                54.8605

                     13                     14                     15
                      A                      A                      A
 Frequencies --    726.3725               926.3511               979.4169
 Red. masses --      2.4721                 2.8613                 1.1443
 Frc consts  --      0.7685                 1.4467                 0.6467
 IR Inten    --     58.1656                61.4725                26.6278

                     16                     17                     18
                      A                      A                      A
 Frequencies --   1050.9754              1092.6167              1099.2732
 Red. masses --      1.3388                 1.6295                 1.6318
 Frc consts  --      0.8712                 1.1461                 1.1618
 IR Inten    --      4.7194                19.8636                38.5932

                     19                     20                     21
                      A                      A                      A
 Frequencies --   1164.9840              1325.2458              1456.9256
 Red. masses --      3.0518                 1.6553                 1.3920
 Frc consts  --      2.4403                 1.7128                 1.7408
 IR Inten    --    288.1814                29.5369                19.7961

                     22                     23                     24
                      A                      A                      A
 Frequencies --   1463.5393              1519.8061              1531.7451
 Red. masses --      2.8598                 1.0850                 1.0551
 Frc consts  --      3.6091                 1.4766                 1.4585
 IR Inten    --     25.9002                12.6227                12.3494

                     25                     26                     27
                      A                      A                      A
 Frequencies --   1644.7600              1682.5795              2362.0268
 Red. masses --      2.0130                 1.7793                 1.0755
 Frc consts  --      3.2085                 2.9680                 3.5353
 IR Inten    --     22.0946               132.7025                88.5026

                     28                     29                     30
                      A                      A                      A
 Frequencies --   3029.4729              3080.4809              3180.9694
 Red. masses --      1.0414                 1.0971                 1.0938
 Frc consts  --      5.6313                 6.1340                 6.5207
 IR Inten    --     39.1445                19.8482                 1.9158

                     31                     32                     33
                      A                      A                      A
 Frequencies --   3567.3395              3670.3024              3735.5637
 Red. masses --      1.0481                 1.0651                 1.0996
 Frc consts  --      7.8587                 8.4536                 9.0408
 IR Inten    --     43.2207                47.6924                45.5972

 - Thermochemistry -
 -------------------
 Temperature   298.150 Kelvin.  Pressure   1.00000 Atm.
 Atom     1 has atomic number  7 and mass  14.00307

 Molecular mass:    89.04768 amu.
 Principal axes and moments of inertia in atomic units:
                           1         2         3
     Eigenvalues --   378.45985 548.05529 900.36272
           X            0.99991  -0.01191   0.00561
           Y            0.01191   0.99993   0.00017
           Z           -0.00562  -0.00011   0.99998
 This molecule is an asymmetric top.
 Rotational symmetry number  1.
 Rotational temperatures (Kelvin)      0.22886     0.15804     0.09620
 Rotational constants (GHZ):           4.76865     3.29299     2.00446
    1 imaginary frequencies ignored.
 Zero-point vibrational energy     266007.6 (Joules/Mol)
                                   63.57735 (Kcal/Mol)
 Warning -- explicit consideration of  10 degrees of freedom as
           vibrations may cause significant error
 Vibrational temperatures:    121.85   229.00   323.07   352.77   457.33
          (Kelvin)            552.23   642.33   685.37   788.19   884.64
                              980.54  1045.09  1332.81  1409.16  1512.12
                             1572.03  1581.61  1676.15  1906.73  2096.19
                             2105.70  2186.66  2203.84  2366.44  2420.85
                             3398.43  4358.73  4432.12  4576.70  5132.60
                             5280.74  5374.64

 Zero-point correction=                           0.101317 (Hartree/Particle)
 Thermal correction to Energy=                    0.108581
 Thermal correction to Enthalpy=                  0.109525
 Thermal correction to Gibbs Free Energy=         0.070499
 Sum of electronic and zero-point Energies=           -323.412219
 Sum of electronic and thermal Energies=              -323.404955
 Sum of electronic and thermal Enthalpies=            -323.404011
 Sum of electronic and thermal Free Energies=         -323.443037

                     E (Thermal)             CV                S
                      KCal/Mol        Cal/Mol-Kelvin    Cal/Mol-Kelvin
 Total                   68.136             25.511             82.138
 Electronic               0.000              0.000              0.000
 Translational            0.889              2.981             39.372
 Rotational               0.889              2.981             26.726
 Vibrational             66.358             19.550             16.040
 Vibration     1          0.601              1.960              3.779
 Vibration     2          0.621              1.892              2.560
 Vibration     3          0.649              1.804              1.922
 Vibration     4          0.660              1.771              1.765
 Vibration     5          0.704              1.639              1.321
 Vibration     6          0.753              1.505              1.024
 Vibration     7          0.806              1.369              0.807
 Vibration     8          0.833              1.302              0.720
 Vibration     9          0.903              1.144              0.549
 Vibration    10          0.974              1.000              0.425

 Optimization completed.
    -- Stationary point found.
 Normal termination of Gaussian 09 at Thu Apr 14 00:17:31 2016.
