 Gaussian 09, Revision D.01,
 Gaussian 09:  ES64L-G09RevD.01 24-Apr-2013

 -----------------------------------------------
 # opt=(calcfc,ts) freq rb3lyp/6-31g iop(1/11=1)
 -----------------------------------------------

 ------------------------
 Ala-S-opt-freq-tsb16-31g
 ------------------------
 Symbolic Z-matrix:
 Charge =  0 Multiplicity = 1

 SCF Done:  E(RB3LYP) =  -323.365027392     A.U. after   20 cycles
 SCF Done:  E(RB3LYP) =  -323.403777333     A.U. after   16 cycles
 SCF Done:  E(RB3LYP) =  -323.440879899     A.U. after   15 cycles
 SCF Done:  E(RB3LYP) =  -323.457798741     A.U. after   14 cycles
 SCF Done:  E(RB3LYP) =  -323.461616328     A.U. after   17 cycles
 SCF Done:  E(RB3LYP) =  -323.474777512     A.U. after   15 cycles
 SCF Done:  E(RB3LYP) =  -323.492049211     A.U. after   16 cycles
 SCF Done:  E(RB3LYP) =  -323.507896628     A.U. after   15 cycles
 SCF Done:  E(RB3LYP) =  -323.509066743     A.U. after   15 cycles
 SCF Done:  E(RB3LYP) =  -323.510901807     A.U. after   15 cycles
 SCF Done:  E(RB3LYP) =  -323.513530553     A.U. after   12 cycles
 SCF Done:  E(RB3LYP) =  -323.513533109     A.U. after   13 cycles
 SCF Done:  E(RB3LYP) =  -323.513534945     A.U. after   11 cycles
 SCF Done:  E(RB3LYP) =  -323.513535404     A.U. after   10 cycles
 SCF Done:  E(RB3LYP) =  -323.513535707     A.U. after    8 cycles
 SCF Done:  E(RB3LYP) =  -323.513535853     A.U. after    9 cycles
 SCF Done:  E(RB3LYP) =  -323.513535989     A.U. after    8 cycles
 SCF Done:  E(RB3LYP) =  -323.513536005     A.U. after    8 cycles
 SCF Done:  E(RB3LYP) =  -323.513536031     A.U. after    8 cycles
 Optimization completed.
    -- Stationary point found.
 Normal termination of Gaussian 09 at Tue Apr 12 08:28:39 2016.

 ----------------------------------------------------------------------
 #N Geom=AllCheck Guess=TCheck SCRF=Check Test GenChk RB3LYP/6-31G Freq
 ----------------------------------------------------------------------

 Structure from the checkpoint file:  "Ala-S-opt-freq-tsb1-6-31g.chk"
 ------------------------
 Ala-S-opt-freq-tsb16-31g
 ------------------------
 Charge =  0 Multiplicity = 1

                         Standard orientation:
 ---------------------------------------------------------------------
 Center     Atomic      Atomic             Coordinates (Angstroms)
 Number     Number       Type             X           Y           Z
 ---------------------------------------------------------------------
      1          7           0       -1.151329   -1.348219    0.104645
      2          1           0       -0.466095   -2.079335    0.250579
      3          6           0       -0.681555   -0.077314   -0.010536
      4          1           0        1.109944   -0.547493   -1.107620
      5          6           0       -1.637230    1.073196   -0.050910
      6          6           0        0.701494    0.071202   -0.140202
      7          1           0       -2.409123    0.935234   -0.821018
      8          1           0       -2.151072    1.174769    0.914629
      9          1           0       -1.102771    2.002354   -0.249505
     10          8           0        1.576516   -1.100718    0.022148
     11          1           0       -2.128356   -1.572825    0.024410
     12          8           0        1.258471    1.335251    0.148022
     13          1           0        2.230626    1.246061    0.104538
 ---------------------------------------------------------------------

 SCF Done:  E(RB3LYP) =  -323.513536031     A.U. after    1 cycles

 The electronic state is 1-A.
 Alpha  occ. eigenvalues --  -19.15041 -19.10883 -14.35988 -10.26590 -10.25125
 Alpha  occ. eigenvalues --  -10.19420  -1.04750  -0.96072  -0.92664  -0.76981
 Alpha  occ. eigenvalues --   -0.68787  -0.58545  -0.55205  -0.50699  -0.48126
 Alpha  occ. eigenvalues --   -0.44148  -0.42496  -0.41292  -0.39659  -0.34801
 Alpha  occ. eigenvalues --   -0.32653  -0.29401  -0.25033  -0.17350
 Alpha virt. eigenvalues --   -0.03378   0.07293   0.08758   0.10881   0.12631
 Alpha virt. eigenvalues --    0.14462   0.16322   0.17478   0.20351   0.23361
 Alpha virt. eigenvalues --    0.24961   0.34929   0.38427   0.53677   0.55187

 Mulliken charges:
               1
     1  N   -0.755316
     2  H    0.351924
     3  C    0.419003
     4  H    0.319858
     5  C   -0.473738
     6  C    0.087165
     7  H    0.148997
     8  H    0.168591
     9  H    0.199422
    10  O   -0.579002
    11  H    0.321710
    12  O   -0.588394
    13  H    0.379778
 Sum of Mulliken charges =   0.00000

 Dipole moment (field-independent basis, Debye):
    X=             -3.3540    Y=             -0.0930    Z=             -1.0420  Tot=              3.5134
 Quadrupole moment (field-independent basis, Debye-Ang):
   XX=            -31.0689   YY=            -36.5735   ZZ=            -36.7011
   XY=              6.2450   XZ=             -1.2620   YZ=             -0.1632

  Exact polarizability:  73.228  -0.876  49.676  -2.932   0.088  28.081
 Approx polarizability: 143.431 -11.084  74.274  -8.571  -0.403  38.640

 ******    1 imaginary frequencies (negative Signs) ******

                      1                      2                      3
                      A                      A                      A
 Frequencies --  -1482.9216                84.9124               159.2647
 Red. masses --      1.1860                 1.0454                 4.4117
 Frc consts  --      1.5366                 0.0044                 0.0659
 IR Inten    --   1106.2699                 1.4876                12.0310

                      4                      5                      6
                      A                      A                      A
 Frequencies --    224.5424               245.4126               317.9565
 Red. masses --      4.3041                 1.4002                 2.0802
 Frc consts  --      0.1279                 0.0497                 0.1239
 IR Inten    --      3.3428                83.7683                56.2763

                      7                      8                      9
                      A                      A                      A
 Frequencies --    383.8672               446.6542               476.4540
 Red. masses --      2.9633                 1.9261                 1.7487
 Frc consts  --      0.2573                 0.2264                 0.2339
 IR Inten    --     22.7139               102.6221                68.7572

                     10                     11                     12
                      A                      A                      A
 Frequencies --    547.7972               615.0544               681.5375
 Red. masses --      4.3048                 2.0159                 2.4185
 Frc consts  --      0.7611                 0.4493                 0.6619
 IR Inten    --     13.7361               124.1158                55.1522

                     13                     14                     15
                      A                      A                      A
 Frequencies --    726.5591               926.2908               979.8479
 Red. masses --      2.4625                 2.8737                 1.1426
 Frc consts  --      0.7659                 1.4528                 0.6463
 IR Inten    --     58.3116                61.8061                26.1604

                     16                     17                     18
                      A                      A                      A
 Frequencies --   1050.9367              1092.6026              1099.3021
 Red. masses --      1.3390                 1.6327                 1.6305
 Frc consts  --      0.8713                 1.1484                 1.1610
 IR Inten    --      4.7228                20.2871                38.0773

                     19                     20                     21
                      A                      A                      A
 Frequencies --   1164.9752              1325.3286              1456.9197
 Red. masses --      3.0407                 1.6552                 1.3881
 Frc consts  --      2.4314                 1.7130                 1.7360
 IR Inten    --    288.2971                29.4863                19.6716

                     22                     23                     24
                      A                      A                      A
 Frequencies --   1463.5992              1519.8195              1531.7629
 Red. masses --      2.8753                 1.0849                 1.0550
 Frc consts  --      3.6289                 1.4765                 1.4584
 IR Inten    --     25.9734                12.6323                12.3611

                     25                     26                     27
                      A                      A                      A
 Frequencies --   1644.8130              1682.6124              2362.9608
 Red. masses --      2.0064                 1.7857                 1.0755
 Frc consts  --      3.1982                 2.9786                 3.5381
 IR Inten    --     22.4068               132.6125                88.7061

                     28                     29                     30
                      A                      A                      A
 Frequencies --   3029.3767              3080.4029              3181.0414
 Red. masses --      1.0415                 1.0971                 1.0938
 Frc consts  --      5.6312                 6.1335                 6.5209
 IR Inten    --     39.1507                19.7821                 1.9091

                     31                     32                     33
                      A                      A                      A
 Frequencies --   3567.2619              3670.3007              3735.6421
 Red. masses --      1.0481                 1.0651                 1.0996
 Frc consts  --      7.8585                 8.4536                 9.0410
 IR Inten    --     43.2408                47.6324                45.6970

 - Thermochemistry -
 -------------------
 Temperature   298.150 Kelvin.  Pressure   1.00000 Atm.
 Atom     1 has atomic number  7 and mass  14.00307

 Molecular mass:    89.04768 amu.
 Principal axes and moments of inertia in atomic units:
                           1         2         3
     Eigenvalues --   378.44527 548.09133 900.37364
           X            0.99991  -0.01188  -0.00563
           Y            0.01187   0.99993  -0.00023
           Z            0.00563   0.00016   0.99998
 This molecule is an asymmetric top.
 Rotational symmetry number  1.
 Rotational temperatures (Kelvin)      0.22887     0.15803     0.09620
 Rotational constants (GHZ):           4.76883     3.29277     2.00444
    1 imaginary frequencies ignored.
 Zero-point vibrational energy     266024.4 (Joules/Mol)
                                   63.58136 (Kcal/Mol)
 Warning -- explicit consideration of  10 degrees of freedom as
           vibrations may cause significant error
 Vibrational temperatures:    122.17   229.15   323.07   353.09   457.47
          (Kelvin)            552.30   642.63   685.51   788.16   884.93
                              980.58  1045.36  1332.72  1409.78  1512.06
                             1572.01  1581.65  1676.14  1906.85  2096.18
                             2105.79  2186.68  2203.86  2366.52  2420.90
                             3399.77  4358.59  4432.01  4576.80  5132.49
                             5280.74  5374.75

 Zero-point correction=                           0.101323 (Hartree/Particle)
 Thermal correction to Energy=                    0.108586
 Thermal correction to Enthalpy=                  0.109530
 Thermal correction to Gibbs Free Energy=         0.070508
 Sum of electronic and zero-point Energies=           -323.412213
 Sum of electronic and thermal Energies=              -323.404950
 Sum of electronic and thermal Enthalpies=            -323.404006
 Sum of electronic and thermal Free Energies=         -323.443028

                     E (Thermal)             CV                S
                      KCal/Mol        Cal/Mol-Kelvin    Cal/Mol-Kelvin
 Total                   68.139             25.508             82.128
 Electronic               0.000              0.000              0.000
 Translational            0.889              2.981             39.372
 Rotational               0.889              2.981             26.726
 Vibrational             66.361             19.547             16.030
 Vibration     1          0.601              1.960              3.774
 Vibration     2          0.621              1.892              2.559
 Vibration     3          0.649              1.804              1.922
 Vibration     4          0.660              1.770              1.763
 Vibration     5          0.704              1.639              1.321
 Vibration     6          0.753              1.505              1.024
 Vibration     7          0.806              1.368              0.806
 Vibration     8          0.833              1.302              0.720
 Vibration     9          0.903              1.145              0.549
 Vibration    10          0.975              1.000              0.424

 Normal termination of Gaussian 09 at Tue Apr 12 08:30:55 2016.
