 Gaussian 09, Revision D.01,
 Gaussian 09:  ES64L-G09RevD.01 24-Apr-2013

 ------------------------------------------------
 #p opt=(calcfc,ts) freq rb3lyp/6-31g iop(1/11=1)
 ------------------------------------------------

 -------------------------
 Ala-S-opt-freq-tsa3-6-31g
 -------------------------
 Symbolic Z-matrix:
 Charge =  0 Multiplicity = 1

 SCF Done:  E(RB3LYP) =  -323.431872359     A.U. after   18 cycles
 SCF Done:  E(RB3LYP) =  -323.449890732     A.U. after   15 cycles
 SCF Done:  E(RB3LYP) =  -323.465042320     A.U. after   15 cycles
 SCF Done:  E(RB3LYP) =  -323.477742879     A.U. after   15 cycles
 SCF Done:  E(RB3LYP) =  -323.487710537     A.U. after   15 cycles
 SCF Done:  E(RB3LYP) =  -323.495678145     A.U. after   14 cycles
 SCF Done:  E(RB3LYP) =  -323.502371615     A.U. after   14 cycles
 SCF Done:  E(RB3LYP) =  -323.506513081     A.U. after   14 cycles
 SCF Done:  E(RB3LYP) =  -323.510393449     A.U. after   14 cycles
 SCF Done:  E(RB3LYP) =  -323.511673047     A.U. after   14 cycles
 SCF Done:  E(RB3LYP) =  -323.513478774     A.U. after   13 cycles
 SCF Done:  E(RB3LYP) =  -323.513426969     A.U. after   14 cycles
 SCF Done:  E(RB3LYP) =  -323.513507948     A.U. after   13 cycles
 SCF Done:  E(RB3LYP) =  -323.513507676     A.U. after   14 cycles
 SCF Done:  E(RB3LYP) =  -323.513534090     A.U. after   12 cycles
 SCF Done:  E(RB3LYP) =  -323.513535887     A.U. after   12 cycles
 SCF Done:  E(RB3LYP) =  -323.513536077     A.U. after    9 cycles
 SCF Done:  E(RB3LYP) =  -323.513536079     A.U. after    8 cycles
 SCF Done:  E(RB3LYP) =  -323.513536106     A.U. after    8 cycles
 Optimization completed.
    -- Stationary point found.
 Normal termination of Gaussian 09 at Wed Apr 13 23:31:53 2016.

 ----------------------------------------------------------------------
 #P Geom=AllCheck Guess=TCheck SCRF=Check Test GenChk RB3LYP/6-31G Freq
 ----------------------------------------------------------------------

 Structure from the checkpoint file:  "Ala-S-opt-freq-tsa3-6-31g.chk"
 -------------------------
 Ala-S-opt-freq-tsa3-6-31g
 -------------------------
 Charge =  0 Multiplicity = 1

                         Standard orientation:
 ---------------------------------------------------------------------
 Center     Atomic      Atomic             Coordinates (Angstroms)
 Number     Number       Type             X           Y           Z
 ---------------------------------------------------------------------
      1          7           0        1.151534   -1.348174    0.104622
      2          1           0        2.128534   -1.572719    0.023871
      3          6           0        0.681566   -0.077300   -0.010711
      4          1           0       -2.230796    1.245216    0.106225
      5          6           0        1.637051    1.073422   -0.050710
      6          6           0       -0.701475    0.071032   -0.140156
      7          1           0        2.149630    1.175791    0.915424
      8          1           0        2.409929    0.935070   -0.819738
      9          1           0        1.102645    2.002336   -0.250594
     10          8           0       -1.576391   -1.100691    0.022308
     11          1           0        0.466419   -2.079411    0.250396
     12          8           0       -1.258612    1.335156    0.147583
     13          1           0       -1.109923   -0.547709   -1.107604
 ---------------------------------------------------------------------

 SCF Done:  E(RB3LYP) =  -323.513536106     A.U. after    1 cycles

 The electronic state is 1-A.
 Alpha  occ. eigenvalues --  -19.15039 -19.10887 -14.35986 -10.26591 -10.25123
 Alpha  occ. eigenvalues --  -10.19419  -1.04752  -0.96075  -0.92667  -0.76981
 Alpha  occ. eigenvalues --   -0.68787  -0.58543  -0.55204  -0.50695  -0.48125
 Alpha  occ. eigenvalues --   -0.44150  -0.42496  -0.41294  -0.39661  -0.34798
 Alpha  occ. eigenvalues --   -0.32649  -0.29407  -0.25037  -0.17349
 Alpha virt. eigenvalues --   -0.03377   0.07294   0.08761   0.10879   0.12629
 Alpha virt. eigenvalues --    0.14462   0.16321   0.17484   0.20355   0.23356
 Alpha virt. eigenvalues --    0.24962   0.34935   0.38433   0.53678   0.55190

 Mulliken charges:
               1
     1  N   -0.755348
     2  H    0.321692
     3  C    0.418997
     4  H    0.379786
     5  C   -0.473673
     6  C    0.087223
     7  H    0.168642
     8  H    0.148928
     9  H    0.199401
    10  O   -0.579024
    11  H    0.351900
    12  O   -0.588419
    13  H    0.319893
 Sum of Mulliken charges =   0.00000

 Dipole moment (field-independent basis, Debye):
    X=              3.3525    Y=             -0.0948    Z=             -1.0395  Tot=              3.5112
 Quadrupole moment (field-independent basis, Debye-Ang):
   XX=            -31.0684   YY=            -36.5772   ZZ=            -36.6994
   XY=             -6.2394   XZ=              1.2512   YZ=             -0.1530

  Exact polarizability:  73.227   0.877  49.674   2.924   0.091  28.080
 Approx polarizability: 143.422  11.081  74.266   8.559  -0.403  38.639

 ******    1 imaginary frequencies (negative Signs) ******

                      1                      2                      3
                      A                      A                      A
 Frequencies --  -1483.1958                84.7495               159.1775
 Red. masses --      1.1861                 1.0455                 4.4051
 Frc consts  --      1.5373                 0.0044                 0.0658
 IR Inten    --   1107.2770                 1.5163                12.1399

                      4                      5                      6
                      A                      A                      A
 Frequencies --    224.5593               245.2498               317.8421
 Red. masses --      4.3095                 1.3972                 2.0854
 Frc consts  --      0.1280                 0.0495                 0.1241
 IR Inten    --      3.2412                84.0816                55.9398

                      7                      8                      9
                      A                      A                      A
 Frequencies --    383.8374               446.4982               476.3984
 Red. masses --      2.9628                 1.9252                 1.7498
 Frc consts  --      0.2572                 0.2261                 0.2340
 IR Inten    --     22.7880               102.4608                68.8546

                     10                     11                     12
                      A                      A                      A
 Frequencies --    547.8064               614.9615               681.5505
 Red. masses --      4.3074                 2.0126                 2.4150
 Frc consts  --      0.7616                 0.4484                 0.6609
 IR Inten    --     13.6942               124.5190                55.0312

                     13                     14                     15
                      A                      A                      A
 Frequencies --    726.4691               926.3711               979.8311
 Red. masses --      2.4705                 2.8712                 1.1428
 Frc consts  --      0.7682                 1.4517                 0.6465
 IR Inten    --     58.1541                61.8310                26.2498

                     16                     17                     18
                      A                      A                      A
 Frequencies --   1050.9319              1092.6189              1099.3220
 Red. masses --      1.3389                 1.6293                 1.6318
 Frc consts  --      0.8713                 1.1460                 1.1619
 IR Inten    --      4.7147                19.9045                38.5262

                     19                     20                     21
                      A                      A                      A
 Frequencies --   1164.9975              1325.3015              1456.8883
 Red. masses --      3.0503                 1.6553                 1.3958
 Frc consts  --      2.4392                 1.7130                 1.7456
 IR Inten    --    288.0731                29.5546                19.9400

                     22                     23                     24
                      A                      A                      A
 Frequencies --   1463.4924              1519.8245              1531.7414
 Red. masses --      2.8432                 1.0848                 1.0551
 Frc consts  --      3.5878                 1.4764                 1.4585
 IR Inten    --     25.7456                12.6246                12.3574

                     25                     26                     27
                      A                      A                      A
 Frequencies --   1644.9413              1682.6312              2362.8178
 Red. masses --      2.0036                 1.7877                 1.0755
 Frc consts  --      3.1942                 2.9821                 3.5377
 IR Inten    --     22.5255               132.3296                88.6638

                     28                     29                     30
                      A                      A                      A
 Frequencies --   3029.4300              3080.4371              3181.0224
 Red. masses --      1.0414                 1.0971                 1.0938
 Frc consts  --      5.6313                 6.1337                 6.5209
 IR Inten    --     39.1215                19.8135                 1.9131

                     31                     32                     33
                      A                      A                      A
 Frequencies --   3567.4328              3670.3058              3735.6624
 Red. masses --      1.0481                 1.0651                 1.0996
 Frc consts  --      7.8591                 8.4536                 9.0413
 IR Inten    --     43.2380                47.6666                45.6332

 - Thermochemistry -
 -------------------
 Temperature   298.150 Kelvin.  Pressure   1.00000 Atm.
 Atom     1 has atomic number  7 and mass  14.00307

 Molecular mass:    89.04768 amu.
 Principal axes and moments of inertia in atomic units:
                           1         2         3
     Eigenvalues --   378.43341 548.07663 900.36283
           X            0.99991   0.01191   0.00561
           Y           -0.01191   0.99993  -0.00018
           Z           -0.00561   0.00012   0.99998
 This molecule is an asymmetric top.
 Rotational symmetry number  1.
 Rotational temperatures (Kelvin)      0.22887     0.15803     0.09620
 Rotational constants (GHZ):           4.76898     3.29286     2.00446
    1 imaginary frequencies ignored.
 Zero-point vibrational energy     266020.2 (Joules/Mol)
                                   63.58035 (Kcal/Mol)
 Warning -- explicit consideration of  10 degrees of freedom as
           vibrations may cause significant error
 Vibrational temperatures:    121.94   229.02   323.09   352.86   457.30
          (Kelvin)            552.26   642.41   685.43   788.17   884.79
                              980.60  1045.23  1332.84  1409.76  1512.05
                             1572.03  1581.68  1676.17  1906.81  2096.13
                             2105.64  2186.69  2203.83  2366.70  2420.93
                             3399.56  4358.67  4432.06  4576.78  5132.73
                             5280.74  5374.78

 Zero-point correction=                           0.101322 (Hartree/Particle)
 Thermal correction to Energy=                    0.108585
 Thermal correction to Enthalpy=                  0.109530
 Thermal correction to Gibbs Free Energy=         0.070504
 Sum of electronic and zero-point Energies=           -323.412214
 Sum of electronic and thermal Energies=              -323.404951
 Sum of electronic and thermal Enthalpies=            -323.404007
 Sum of electronic and thermal Free Energies=         -323.443032

                     E (Thermal)             CV                S
                      KCal/Mol        Cal/Mol-Kelvin    Cal/Mol-Kelvin
 Total                   68.138             25.510             82.136
 Electronic               0.000              0.000              0.000
 Translational            0.889              2.981             39.372
 Rotational               0.889              2.981             26.726
 Vibrational             66.361             19.548             16.037
 Vibration     1          0.601              1.960              3.778
 Vibration     2          0.621              1.892              2.560
 Vibration     3          0.649              1.804              1.922
 Vibration     4          0.660              1.771              1.764
 Vibration     5          0.704              1.639              1.321
 Vibration     6          0.753              1.505              1.024
 Vibration     7          0.806              1.369              0.806
 Vibration     8          0.833              1.302              0.720
 Vibration     9          0.903              1.144              0.549
 Vibration    10          0.974              1.000              0.425

 Optimization completed.
    -- Stationary point found.
 Normal termination of Gaussian 09 at Wed Apr 13 23:33:20 2016.
