 Gaussian 09, Revision D.01,
 Gaussian 09:  ES64L-G09RevD.01 24-Apr-2013

 ----------------------------------------------------------------------
 # opt=(calcfc,ts) freq rb3lyp/6-31g scrf=check guess=tcheck geom=conne
 ctivity iop(1/11=1)
 ----------------------------------------------------------------------

 ------------------------
 Phe-R-opt-freq-ts--6-31g
 ------------------------
 Symbolic Z-matrix:
 Charge =  0 Multiplicity = 1

 SCF Done:  E(RB3LYP) =  -554.481477595     A.U. after   14 cycles
 SCF Done:  E(RB3LYP) =  -554.514597180     A.U. after   14 cycles
 SCF Done:  E(RB3LYP) =  -554.545795908     A.U. after   13 cycles
 SCF Done:  E(RB3LYP) =  -554.565509160     A.U. after   14 cycles
 SCF Done:  E(RB3LYP) =  -554.569002376     A.U. after   14 cycles
 SCF Done:  E(RB3LYP) =  -554.568276118     A.U. after   14 cycles
 SCF Done:  E(RB3LYP) =  -554.560874899     A.U. after   15 cycles
 SCF Done:  E(RB3LYP) =  -554.568808476     A.U. after   15 cycles
 SCF Done:  E(RB3LYP) =  -554.568020355     A.U. after   16 cycles
 SCF Done:  E(RB3LYP) =  -554.565654934     A.U. after   16 cycles
 SCF Done:  E(RB3LYP) =  -554.569925446     A.U. after   13 cycles
 SCF Done:  E(RB3LYP) =  -554.569484448     A.U. after   16 cycles
 SCF Done:  E(RB3LYP) =  -554.569901114     A.U. after   14 cycles
 SCF Done:  E(RB3LYP) =  -554.569570398     A.U. after   15 cycles
 SCF Done:  E(RB3LYP) =  -554.569922538     A.U. after   13 cycles
 SCF Done:  E(RB3LYP) =  -554.569942219     A.U. after   12 cycles
 SCF Done:  E(RB3LYP) =  -554.569943302     A.U. after   11 cycles
 SCF Done:  E(RB3LYP) =  -554.569943401     A.U. after    9 cycles
 SCF Done:  E(RB3LYP) =  -554.569943438     A.U. after    8 cycles
 Optimization completed.
    -- Stationary point found.
 Normal termination of Gaussian 09 at Wed Mar 30 09:57:10 2016.

 ----------------------------------------------------------------------
 #N Geom=AllCheck Guess=TCheck SCRF=Check Test GenChk RB3LYP/6-31G Freq
 ----------------------------------------------------------------------

 Structure from the checkpoint file:  "Phe-R-opt-freq-6-311gdp.chk"
 ------------------------
 Phe-R-opt-freq-ts--6-31g
 ------------------------
 Charge =  0 Multiplicity = 1

                         Standard orientation:
 ---------------------------------------------------------------------
 Center     Atomic      Atomic             Coordinates (Angstroms)
 Number     Number       Type             X           Y           Z
 ---------------------------------------------------------------------
      1          6           0       -1.363448    0.276507    0.364351
      2          1           0       -1.011392   -0.149127    1.311723
      3          6           0       -2.750021   -0.268242    0.138632
      4          8           0       -3.081555   -1.533483    0.116265
      5          8           0       -3.821362    0.442384   -0.101509
      6          1           0       -4.225731   -0.846409   -0.134575
      7          6           0       -0.418479   -0.263787   -0.762062
      8          1           0       -0.685190   -1.306568   -0.963623
      9          1           0       -0.633482    0.310071   -1.673181
     10          6           0        1.049040   -0.170619   -0.400117
     11          6           0        1.736159    1.055904   -0.429287
     12          6           0        1.750265   -1.326971   -0.016292
     13          6           0        3.089468    1.120979   -0.081776
     14          1           0        1.199948    1.956079   -0.706013
     15          6           0        3.104346   -1.263241    0.331223
     16          1           0        1.232962   -2.282725    0.004253
     17          6           0        3.778135   -0.037410    0.298946
     18          1           0        3.606645    2.075242   -0.109654
     19          1           0        3.630414   -2.167556    0.621350
     20          1           0        4.829387    0.014804    0.564720
     21          7           0       -1.317761    1.724335    0.461147
     22          1           0       -1.793895    2.210089   -0.290943
     23          1           0       -1.554795    2.105834    1.368154
 ---------------------------------------------------------------------

 SCF Done:  E(RB3LYP) =  -554.569943438     A.U. after    1 cycles

 The electronic state is 1-A.
 Alpha  occ. eigenvalues --  -19.18252 -19.17928 -14.32576 -10.34019 -10.25755
 Alpha  occ. eigenvalues --  -10.20099 -10.19561 -10.18567 -10.18521 -10.18486
 Alpha  occ. eigenvalues --  -10.18430 -10.18109  -1.14596  -0.99818  -0.91507
 Alpha  occ. eigenvalues --   -0.85621  -0.78882  -0.74398  -0.73920  -0.67045
 Alpha  occ. eigenvalues --   -0.60553  -0.58577  -0.57380  -0.52801  -0.51145
 Alpha  occ. eigenvalues --   -0.50527  -0.47882  -0.46325  -0.45964  -0.45172
 Alpha  occ. eigenvalues --   -0.43684  -0.42842  -0.42030  -0.40125  -0.38786
 Alpha  occ. eigenvalues --   -0.37914  -0.35330  -0.34162  -0.33835  -0.30970
 Alpha  occ. eigenvalues --   -0.30003  -0.25201  -0.24406  -0.23931
 Alpha virt. eigenvalues --   -0.03472   0.00130   0.00346   0.03483   0.07349
 Alpha virt. eigenvalues --    0.09836   0.11139   0.12668   0.13909   0.15258
 Alpha virt. eigenvalues --    0.16236   0.16915   0.17149   0.19105   0.19415

 Mulliken charges:
               1
     1  C   -0.054081
     2  H    0.193345
     3  C    0.517775
     4  O   -0.527484
     5  O   -0.525607
     6  H    0.383311
     7  C   -0.315231
     8  H    0.170302
     9  H    0.147040
    10  C    0.099603
    11  C   -0.120471
    12  C   -0.161029
    13  C   -0.133910
    14  H    0.136594
    15  C   -0.126849
    16  H    0.126967
    17  C   -0.120672
    18  H    0.123936
    19  H    0.124840
    20  H    0.124056
    21  N   -0.659562
    22  H    0.298478
    23  H    0.298647
 Sum of Mulliken charges =   0.00000

 Dipole moment (field-independent basis, Debye):
    X=              0.7095    Y=              0.9919    Z=              0.4642  Tot=              1.3049
 Quadrupole moment (field-independent basis, Debye-Ang):
   XX=            -72.9755   YY=            -69.8028   ZZ=            -69.5095
   XY=             -2.4382   XZ=              0.6420   YZ=              0.2140

  Exact polarizability: 137.569   1.065 107.755  13.227  -6.128  53.831
 Approx polarizability: 184.691  -3.108 190.865  25.959 -16.127  76.981

 ******    1 imaginary frequencies (negative Signs) ******

                      1                      2                      3
                      A                      A                      A
 Frequencies --  -1893.0629                30.9734                34.6176
 Red. masses --      1.0950                 7.9406                 4.5248
 Frc consts  --      2.3121                 0.0045                 0.0032
 IR Inten    --    223.8139                 0.0225                 1.2103

                      4                      5                      6
                      A                      A                      A
 Frequencies --     62.6749                90.9667               176.3459
 Red. masses --      4.1249                 4.5838                 3.1978
 Frc consts  --      0.0095                 0.0223                 0.0586
 IR Inten    --      0.2520                 0.3634                11.7292

                      7                      8                      9
                      A                      A                      A
 Frequencies --    206.2946               261.8874               270.5177
 Red. masses --      1.3552                 3.5378                 5.0555
 Frc consts  --      0.0340                 0.1430                 0.2180
 IR Inten    --     25.1492                 2.3463                 3.9121

                     10                     11                     12
                      A                      A                      A
 Frequencies --    313.7240               405.4532               425.9451
 Red. masses --      2.8714                 2.1884                 2.8575
 Frc consts  --      0.1665                 0.2120                 0.3055
 IR Inten    --      7.4098                 8.2519                 0.2980

                     13                     14                     15
                      A                      A                      A
 Frequencies --    493.1200               510.7040               586.0490
 Red. masses --      3.5786                 4.4348                 4.3598
 Frc consts  --      0.5127                 0.6815                 0.8822
 IR Inten    --      2.2250                16.7160                 8.2505

                     16                     17                     18
                      A                      A                      A
 Frequencies --    628.0736               654.2634               669.3530
 Red. masses --      2.8140                 6.1454                 1.7869
 Frc consts  --      0.6540                 1.5499                 0.4717
 IR Inten    --     25.5527                 0.7211               218.0776

                     19                     20                     21
                      A                      A                      A
 Frequencies --    728.3488               769.0847               796.4044
 Red. masses --      1.7925                 2.4223                 3.2082
 Frc consts  --      0.5602                 0.8442                 1.1989
 IR Inten    --     34.7034                49.0458                33.8974

                     22                     23                     24
                      A                      A                      A
 Frequencies --    868.7804               878.1517               892.7446
 Red. masses --      3.7244                 1.2602                 2.6490
 Frc consts  --      1.6562                 0.5726                 1.2439
 IR Inten    --     14.3749                 0.1467                 0.4419

                     25                     26                     27
                      A                      A                      A
 Frequencies --    942.6982               968.7083               997.9487
 Red. masses --      1.8720                 2.0688                 1.3851
 Frc consts  --      0.9802                 1.1438                 0.8127
 IR Inten    --      3.4824                 1.8475                 0.0309

                     28                     29                     30
                      A                      A                      A
 Frequencies --   1006.2737              1029.1482              1038.0338
 Red. masses --      3.1508                 1.3222                 5.7694
 Frc consts  --      1.8798                 0.8251                 3.6627
 IR Inten    --      0.6058                 0.0953                 0.0529

                     31                     32                     33
                      A                      A                      A
 Frequencies --   1069.3116              1116.8649              1153.0538
 Red. masses --      2.3234                 1.6354                 2.8366
 Frc consts  --      1.5652                 1.2019                 2.2220
 IR Inten    --      3.8996                 2.9026                23.8397

                     34                     35                     36
                      A                      A                      A
 Frequencies --   1156.9070              1171.7665              1222.3800
 Red. masses --      1.2063                 1.2206                 1.0799
 Frc consts  --      0.9513                 0.9875                 0.9507
 IR Inten    --    115.3035                 4.1417                 0.0634

                     37                     38                     39
                      A                      A                      A
 Frequencies --   1238.8733              1249.6913              1285.9009
 Red. masses --      1.1662                 2.8478                 1.3826
 Frc consts  --      1.0546                 2.6204                 1.3470
 IR Inten    --      0.5842                 0.0989                 9.1734

                     40                     41                     42
                      A                      A                      A
 Frequencies --   1312.8778              1364.7320              1374.5485
 Red. masses --      1.4998                 1.6239                 3.0713
 Frc consts  --      1.5231                 1.7820                 3.4189
 IR Inten    --     19.3732                33.9045                 6.9740

                     43                     44                     45
                      A                      A                      A
 Frequencies --   1392.2428              1404.5554              1429.2060
 Red. masses --      1.8289                 1.4148                 2.0484
 Frc consts  --      2.0887                 1.6445                 2.4652
 IR Inten    --     65.5326                25.4794                62.2656

                     46                     47                     48
                      A                      A                      A
 Frequencies --   1511.3400              1516.3380              1534.8812
 Red. masses --      2.2977                 3.9673                 1.1447
 Frc consts  --      3.0921                 5.3745                 1.5889
 IR Inten    --     23.5608               170.1179                 9.0094

                     49                     50                     51
                      A                      A                      A
 Frequencies --   1556.5328              1642.6776              1663.7807
 Red. masses --      2.0451                 5.3451                 5.5270
 Frc consts  --      2.9194                 8.4980                 9.0143
 IR Inten    --     13.3258                 0.5599                 3.2818

                     52                     53                     54
                      A                      A                      A
 Frequencies --   1719.1902              2069.8061              3047.5264
 Red. masses --      1.0898                 1.1300                 1.0637
 Frc consts  --      1.8977                 2.8522                 5.8203
 IR Inten    --     43.2171                18.1475                18.6539

                     55                     56                     57
                      A                      A                      A
 Frequencies --   3079.9158              3112.6806              3183.2457
 Red. masses --      1.0820                 1.0988                 1.0865
 Frc consts  --      6.0474                 6.2726                 6.4864
 IR Inten    --      6.4480                 9.5707                 6.5669

                     58                     59                     60
                      A                      A                      A
 Frequencies --   3192.5174              3204.5019              3218.9075
 Red. masses --      1.0874                 1.0923                 1.0970
 Frc consts  --      6.5299                 6.6086                 6.6967
 IR Inten    --      1.7947                33.6327                34.8615

                     61                     62                     63
                      A                      A                      A
 Frequencies --   3234.5954              3546.4401              3660.3320
 Red. masses --      1.0950                 1.0456                 1.0976
 Frc consts  --      6.7501                 7.7484                 8.6642
 IR Inten    --      8.1544                 5.1848                 7.5787

 - Thermochemistry -
 -------------------
 Temperature   298.150 Kelvin.  Pressure   1.00000 Atm.
 Atom     1 has atomic number  6 and mass  12.00000

 Molecular mass:   165.07898 amu.
 Principal axes and moments of inertia in atomic units:
                           1         2         3
     Eigenvalues --   755.833593993.749714553.50497
           X            0.99999  -0.00385   0.00290
           Y            0.00385   0.99999  -0.00047
           Z           -0.00290   0.00048   1.00000
 This molecule is an asymmetric top.
 Rotational symmetry number  1.
 Warning -- assumption of classical behavior for rotation
           may cause significant error
 Rotational temperatures (Kelvin)      0.11459     0.02169     0.01902
 Rotational constants (GHZ):           2.38775     0.45189     0.39634
    1 imaginary frequencies ignored.
 Zero-point vibrational energy     486733.0 (Joules/Mol)
                                  116.33199 (Kcal/Mol)
 Warning -- explicit consideration of  14 degrees of freedom as
           vibrations may cause significant error
 Vibrational temperatures:     44.56    49.81    90.18   130.88   253.72
          (Kelvin)            296.81   376.80   389.21   451.38   583.36
                              612.84   709.49   734.79   843.19   903.66
                              941.34   963.05  1047.93  1106.54  1145.85
                             1249.98  1263.46  1284.46  1356.33  1393.75
                             1435.82  1447.80  1480.71  1493.50  1538.50
                             1606.92  1658.99  1664.53  1685.91  1758.73
                             1782.46  1798.02  1850.12  1888.94  1963.54
                             1977.67  2003.12  2020.84  2056.31  2174.48
                             2181.67  2208.35  2239.50  2363.44  2393.81
                             2473.53  2977.99  4384.71  4431.31  4478.45
                             4579.97  4593.31  4610.56  4631.28  4653.86
                             5102.53  5266.39

 Zero-point correction=                           0.185387 (Hartree/Particle)
 Thermal correction to Energy=                    0.196519
 Thermal correction to Enthalpy=                  0.197463
 Thermal correction to Gibbs Free Energy=         0.146337
 Sum of electronic and zero-point Energies=           -554.384557
 Sum of electronic and thermal Energies=              -554.373425
 Sum of electronic and thermal Enthalpies=            -554.372481
 Sum of electronic and thermal Free Energies=         -554.423607

                     E (Thermal)             CV                S
                      KCal/Mol        Cal/Mol-Kelvin    Cal/Mol-Kelvin
 Total                  123.317             40.950            107.603
 Electronic               0.000              0.000              0.000
 Translational            0.889              2.981             41.212
 Rotational               0.889              2.981             30.998
 Vibrational            121.540             34.989             35.394
 Vibration     1          0.594              1.984              5.766
 Vibration     2          0.594              1.983              5.546
 Vibration     3          0.597              1.972              4.371
 Vibration     4          0.602              1.956              3.639
 Vibration     5          0.628              1.872              2.367
 Vibration     6          0.641              1.831              2.076
 Vibration     7          0.669              1.743              1.649
 Vibration     8          0.674              1.728              1.593
 Vibration     9          0.702              1.647              1.343
 Vibration    10          0.770              1.458              0.943
 Vibration    11          0.788              1.414              0.872
 Vibration    12          0.849              1.265              0.676
 Vibration    13          0.866              1.226              0.632
 Vibration    14          0.943              1.062              0.474

 Optimization completed.
    -- Stationary point found.
 Normal termination of Gaussian 09 at Wed Mar 30 10:04:33 2016.
