 Gaussian 09, Revision D.01,
 Gaussian 09:  ES64L-G09RevD.01 24-Apr-2013

 ---------------------------------------------------
 # freq rb3lyp/6-311++g(d,p) scrf=check guess=tcheck
 ---------------------------------------------------

 -----------------------------
 Phe-R-opt-freq-ts--6-311++gdp
 -----------------------------
 Symbolic Z-matrix:
 Charge =  0 Multiplicity = 1

                         Standard orientation:
 ---------------------------------------------------------------------
 Center     Atomic      Atomic             Coordinates (Angstroms)
 Number     Number       Type             X           Y           Z
 ---------------------------------------------------------------------
      1          6           0        1.363448    0.276507   -0.364351
      2          1           0        1.011392   -0.149127   -1.311723
      3          6           0        2.750021   -0.268242   -0.138632
      4          8           0        3.081555   -1.533483   -0.116265
      5          8           0        3.821362    0.442384    0.101509
      6          1           0        4.225731   -0.846409    0.134575
      7          6           0        0.418479   -0.263787    0.762062
      8          1           0        0.685190   -1.306568    0.963623
      9          1           0        0.633482    0.310071    1.673181
     10          6           0       -1.049040   -0.170619    0.400117
     11          6           0       -1.736159    1.055904    0.429287
     12          6           0       -1.750265   -1.326971    0.016292
     13          6           0       -3.089468    1.120979    0.081776
     14          1           0       -1.199948    1.956079    0.706013
     15          6           0       -3.104346   -1.263241   -0.331223
     16          1           0       -1.232962   -2.282725   -0.004253
     17          6           0       -3.778135   -0.037410   -0.298946
     18          1           0       -3.606645    2.075242    0.109654
     19          1           0       -3.630414   -2.167556   -0.621350
     20          1           0       -4.829387    0.014804   -0.564720
     21          7           0        1.317761    1.724335   -0.461147
     22          1           0        1.793895    2.210089    0.290943
     23          1           0        1.554795    2.105834   -1.368154
 ---------------------------------------------------------------------

 SCF Done:  E(RB3LYP) =  -554.896581562     A.U. after   14 cycles

 The electronic state is 1-A.
 Alpha  occ. eigenvalues --  -19.15626 -19.15275 -14.31510 -10.32831 -10.24949
 Alpha  occ. eigenvalues --  -10.19704 -10.19190 -10.18163 -10.18113 -10.18072
 Alpha  occ. eigenvalues --  -10.18019 -10.17794  -1.12359  -0.98679  -0.91688
 Alpha  occ. eigenvalues --   -0.86242  -0.79373  -0.75104  -0.74325  -0.67451
 Alpha  occ. eigenvalues --   -0.61286  -0.59228  -0.57736  -0.53322  -0.52002
 Alpha  occ. eigenvalues --   -0.51548  -0.48538  -0.46795  -0.46752  -0.45578
 Alpha  occ. eigenvalues --   -0.44525  -0.43302  -0.42708  -0.40757  -0.39476
 Alpha  occ. eigenvalues --   -0.38606  -0.36327  -0.35143  -0.34820  -0.31824
 Alpha  occ. eigenvalues --   -0.30740  -0.26698  -0.25703  -0.25363
 Alpha virt. eigenvalues --   -0.04248  -0.02375  -0.02026  -0.01380  -0.00344
 Alpha virt. eigenvalues --    0.00131   0.00756   0.01384   0.02308   0.03100
 Alpha virt. eigenvalues --    0.03927   0.04555   0.05623   0.05992   0.06233

 Mulliken charges:
               1
     1  C   -0.121845
     2  H    0.239218
     3  C   -0.364162
     4  O   -0.259406
     5  O   -0.257207
     6  H    0.310274
     7  C   -0.822236
     8  H    0.195915
     9  H    0.178806
    10  C    1.384606
    11  C   -0.111580
    12  C   -0.438104
    13  C   -0.389236
    14  H    0.204854
    15  C   -0.328995
    16  H    0.158450
    17  C   -0.251303
    18  H    0.171293
    19  H    0.169752
    20  H    0.155131
    21  N   -0.332307
    22  H    0.251223
    23  H    0.256858
 Sum of Mulliken charges =   0.00000

 Dipole moment (field-independent basis, Debye):
    X=             -0.9525    Y=              0.9327    Z=             -0.4242  Tot=              1.3990
 Quadrupole moment (field-independent basis, Debye-Ang):
   XX=            -74.9580   YY=            -70.7350   ZZ=            -71.5264
   XY=              2.0225   XZ=              1.1138   YZ=              0.0259

  Exact polarizability: 159.600  -0.164 125.316   9.746   4.212  81.089
 Approx polarizability: 213.218   2.468 214.135  20.256  12.456 126.261

 ******    1 imaginary frequencies (negative Signs) ******

                      1                      2                      3
                      A                      A                      A
 Frequencies --  -1917.5851                78.4289                94.1590
 Red. masses --      1.1037                 3.8665                 4.5236
 Frc consts  --      2.3912                 0.0140                 0.0236
 IR Inten    --    357.3502                 0.3594                 0.1368

                      4                      5                      6
                      A                      A                      A
 Frequencies --    115.3998               149.8886               206.2911
 Red. masses --      4.5761                10.5071                 5.2036
 Frc consts  --      0.0359                 0.1391                 0.1305
 IR Inten    --      0.2746                 0.1469                 3.7305

                      7                      8                      9
                      A                      A                      A
 Frequencies --    247.4182               267.7617               308.4355
 Red. masses --      1.4043                 2.7578                 4.2107
 Frc consts  --      0.0506                 0.1165                 0.2360
 IR Inten    --     16.2147                 0.7159                 5.8370

                     10                     11                     12
                      A                      A                      A
 Frequencies --    319.8757               419.9665               423.6211
 Red. masses --      2.5672                 2.2517                 2.8173
 Frc consts  --      0.1548                 0.2340                 0.2979
 IR Inten    --      6.9280                 7.2237                 0.4239

                     13                     14                     15
                      A                      A                      A
 Frequencies --    497.9393               515.2422               575.5860
 Red. masses --      3.5198                 4.1449                 4.5202
 Frc consts  --      0.5142                 0.6483                 0.8823
 IR Inten    --      9.6415                17.4333                 7.5599

                     16                     17                     18
                      A                      A                      A
 Frequencies --    614.4848               634.6075               676.2543
 Red. masses --      1.6026                 6.0003                 3.4969
 Frc consts  --      0.3565                 1.4237                 0.9422
 IR Inten    --    114.4945                 2.2113                63.3482

                     19                     20                     21
                      A                      A                      A
 Frequencies --    714.9083               766.7681               781.4967
 Red. masses --      1.7242                 2.3182                 3.9622
 Frc consts  --      0.5192                 0.8030                 1.4257
 IR Inten    --     46.4325                27.9523                25.0553

                     22                     23                     24
                      A                      A                      A
 Frequencies --    856.8327               858.3709               878.5199
 Red. masses --      1.2584                 3.3860                 2.6217
 Frc consts  --      0.5443                 1.4699                 1.1922
 IR Inten    --      0.1323                14.5352                 2.0306

                     25                     26                     27
                      A                      A                      A
 Frequencies --    926.2555               956.1012               983.3412
 Red. masses --      1.6475                 2.3509                 1.3776
 Frc consts  --      0.8328                 1.2662                 0.7848
 IR Inten    --      3.4045                 2.9146                 0.0474

                     28                     29                     30
                      A                      A                      A
 Frequencies --    992.6022              1000.1303              1010.6003
 Red. masses --      3.7365                 1.2919                 5.9312
 Frc consts  --      2.1690                 0.7613                 3.5690
 IR Inten    --      1.1233                 0.0214                 0.0939

                     31                     32                     33
                      A                      A                      A
 Frequencies --   1041.9965              1089.6143              1113.3452
 Red. masses --      2.2931                 1.6793                 2.9981
 Frc consts  --      1.4669                 1.1747                 2.1895
 IR Inten    --      5.4527                 2.1091                37.8310

                     34                     35                     36
                      A                      A                      A
 Frequencies --   1144.1716              1176.8683              1199.4321
 Red. masses --      1.2069                 1.1491                 1.1692
 Frc consts  --      0.9309                 0.9377                 0.9911
 IR Inten    --      5.5317                 0.1504                 0.3345

                     37                     38                     39
                      A                      A                      A
 Frequencies --   1211.7508              1215.9794              1253.0212
 Red. masses --      1.2840                 2.1547                 1.4703
 Frc consts  --      1.1108                 1.8771                 1.3601
 IR Inten    --     64.5808                16.7237                23.9518

                     40                     41                     42
                      A                      A                      A
 Frequencies --   1277.6604              1320.5864              1340.3776
 Red. masses --      1.8234                 2.3527                 1.8329
 Frc consts  --      1.7538                 2.4174                 1.9402
 IR Inten    --     15.2400                12.6793               126.2697

                     43                     44                     45
                      A                      A                      A
 Frequencies --   1352.0009              1365.9201              1400.7569
 Red. masses --      1.5630                 1.3486                 2.5741
 Frc consts  --      1.6833                 1.4825                 2.9758
 IR Inten    --     37.8995                17.7627               178.8613

                     46                     47                     48
                      A                      A                      A
 Frequencies --   1441.8059              1473.6894              1493.0986
 Red. masses --      3.2418                 1.9933                 1.1384
 Frc consts  --      3.9706                 2.5506                 1.4953
 IR Inten    --    209.6957                10.1924                 7.3492

                     49                     50                     51
                      A                      A                      A
 Frequencies --   1516.3313              1601.7016              1623.3082
 Red. masses --      2.1233                 5.1215                 5.2809
 Frc consts  --      2.8764                 7.7412                 8.1990
 IR Inten    --     12.6535                 0.4557                 4.7066

                     52                     53                     54
                      A                      A                      A
 Frequencies --   1659.4407              1944.8646              3007.8296
 Red. masses --      1.1005                 1.1141                 1.0654
 Frc consts  --      1.7855                 2.4829                 5.6790
 IR Inten    --     36.5929                28.1479                15.5808

                     55                     56                     57
                      A                      A                      A
 Frequencies --   3039.0545              3067.6676              3144.0989
 Red. masses --      1.0825                 1.0993                 1.0868
 Frc consts  --      5.8905                 6.0951                 6.3299
 IR Inten    --      4.7751                 7.7269                 5.0381

                     58                     59                     60
                      A                      A                      A
 Frequencies --   3153.0452              3163.6209              3175.0799
 Red. masses --      1.0874                 1.0917                 1.0960
 Frc consts  --      6.3696                 6.4378                 6.5101
 IR Inten    --      0.9156                21.2745                21.4092

                     61                     62                     63
                      A                      A                      A
 Frequencies --   3189.4077              3521.1646              3623.0975
 Red. masses --      1.0934                 1.0473                 1.0986
 Frc consts  --      6.5534                 7.6505                 8.4966
 IR Inten    --      5.2171                11.0654                17.5015

 - Thermochemistry -
 -------------------
 Temperature   298.150 Kelvin.  Pressure   1.00000 Atm.
 Atom     1 has atomic number  6 and mass  12.00000

 Molecular mass:   165.07898 amu.
 Principal axes and moments of inertia in atomic units:
                           1         2         3
     Eigenvalues --   755.833473993.750134553.50529
           X            0.99999   0.00385   0.00290
           Y           -0.00385   0.99999   0.00047
           Z           -0.00290  -0.00048   1.00000
 This molecule is an asymmetric top.
 Rotational symmetry number  1.
 Warning -- assumption of classical behavior for rotation
           may cause significant error
 Rotational temperatures (Kelvin)      0.11459     0.02169     0.01902
 Rotational constants (GHZ):           2.38775     0.45189     0.39634
    1 imaginary frequencies ignored.
 Zero-point vibrational energy     479780.7 (Joules/Mol)
                                  114.67035 (Kcal/Mol)
 Warning -- explicit consideration of  15 degrees of freedom as
           vibrations may cause significant error
 Vibrational temperatures:    112.84   135.47   166.03   215.66   296.81
          (Kelvin)            355.98   385.25   443.77   460.23   604.24
                              609.50   716.42   741.32   828.14   884.11
                              913.06   972.98  1028.59  1103.21  1124.40
                             1232.79  1235.00  1263.99  1332.67  1375.61
                             1414.81  1428.13  1438.96  1454.03  1499.20
                             1567.71  1601.85  1646.21  1693.25  1725.71
                             1743.44  1749.52  1802.82  1838.27  1900.03
                             1928.50  1945.23  1965.25  2015.37  2074.43
                             2120.31  2148.23  2181.66  2304.49  2335.58
                             2387.56  2798.22  4327.59  4372.52  4413.68
                             4523.65  4536.52  4551.74  4568.23  4588.84
                             5066.16  5212.82

 Zero-point correction=                           0.182739 (Hartree/Particle)
 Thermal correction to Energy=                    0.193335
 Thermal correction to Enthalpy=                  0.194279
 Thermal correction to Gibbs Free Energy=         0.146340
 Sum of electronic and zero-point Energies=           -554.713843
 Sum of electronic and thermal Energies=              -554.703247
 Sum of electronic and thermal Enthalpies=            -554.702302
 Sum of electronic and thermal Free Energies=         -554.750241

                     E (Thermal)             CV                S
                      KCal/Mol        Cal/Mol-Kelvin    Cal/Mol-Kelvin
 Total                  121.320             41.218            100.896
 Electronic               0.000              0.000              0.000
 Translational            0.889              2.981             41.212
 Rotational               0.889              2.981             30.998
 Vibrational            119.542             35.256             28.686
 Vibration     1          0.600              1.964              3.930
 Vibration     2          0.603              1.953              3.572
 Vibration     3          0.608              1.937              3.176
 Vibration     4          0.618              1.903              2.674
 Vibration     5          0.641              1.831              2.076
 Vibration     6          0.661              1.767              1.749
 Vibration     7          0.673              1.732              1.611
 Vibration     8          0.698              1.658              1.371
 Vibration     9          0.706              1.636              1.311
 Vibration    10          0.783              1.427              0.892
 Vibration    11          0.786              1.419              0.880
 Vibration    12          0.853              1.255              0.663
 Vibration    13          0.870              1.216              0.621
 Vibration    14          0.932              1.084              0.494
 Vibration    15          0.974              1.001              0.425

 1\1\GINC-KALI\Freq\RB3LYP\6-311++G(d,p)\C9H11N1O2\ROOT\30-Mar-2016\0\\
 # freq rb3lyp/6-311++g(d,p) scrf=check guess=tcheck\\Phe-R-opt-freq-ts
 --6-311++gdp\\0,1\C,-1.363448,0.276507,0.364351\H,-1.011392,-0.149127,
 1.311723\C,-2.750021,-0.268242,0.138632\O,-3.081555,-1.533483,0.116265
 \O,-3.821362,0.442384,-0.101509\H,-4.225731,-0.846409,-0.134575\C,-0.4
 18479,-0.263787,-0.762062\H,-0.68519,-1.306568,-0.963623\H,-0.633482,0
 .310071,-1.673181\C,1.04904,-0.170619,-0.400117\C,1.736159,1.055904,-0
 .429287\C,1.750265,-1.326971,-0.016292\C,3.089468,1.120979,-0.081776\H

 Normal termination of Gaussian 09 at Wed Mar 30 12:36:21 2016.
