 Gaussian 09, Revision D.01,
 Gaussian 09:  ES64L-G09RevD.01 24-Apr-2013

 -----------------------------------------------
 # opt=(calcfc,ts) freq rb3lyp/6-31g iop(1/11=1)
 -----------------------------------------------

 -------------------------
 Ala-S-opt-freq-tsb2-6-31g
 -------------------------
 Symbolic Z-matrix:
 Charge =  0 Multiplicity = 1

 SCF Done:  E(RB3LYP) =  -323.467645929     A.U. after   16 cycles
 SCF Done:  E(RB3LYP) =  -323.470777935     A.U. after   14 cycles
 SCF Done:  E(RB3LYP) =  -323.475035467     A.U. after   15 cycles
 SCF Done:  E(RB3LYP) =  -323.481076251     A.U. after   15 cycles
 SCF Done:  E(RB3LYP) =  -323.483992847     A.U. after   14 cycles
 SCF Done:  E(RB3LYP) =  -323.482440616     A.U. after   15 cycles
 SCF Done:  E(RB3LYP) =  -323.485100389     A.U. after   14 cycles
 SCF Done:  E(RB3LYP) =  -323.485406054     A.U. after   13 cycles
 SCF Done:  E(RB3LYP) =  -323.486380726     A.U. after   15 cycles
 SCF Done:  E(RB3LYP) =  -323.484884605     A.U. after   15 cycles
 SCF Done:  E(RB3LYP) =  -323.487000634     A.U. after    8 cycles
 SCF Done:  E(RB3LYP) =  -323.486601329     A.U. after   15 cycles
 SCF Done:  E(RB3LYP) =  -323.486929784     A.U. after   13 cycles
 SCF Done:  E(RB3LYP) =  -323.486925399     A.U. after   15 cycles
 SCF Done:  E(RB3LYP) =  -323.486998453     A.U. after   14 cycles
 SCF Done:  E(RB3LYP) =  -323.487000016     A.U. after   12 cycles
 SCF Done:  E(RB3LYP) =  -323.487000534     A.U. after    9 cycles
 SCF Done:  E(RB3LYP) =  -323.487000759     A.U. after    8 cycles
 SCF Done:  E(RB3LYP) =  -323.487000695     A.U. after    8 cycles
 Optimization completed.
    -- Stationary point found.
 Normal termination of Gaussian 09 at Sun Apr 10 16:45:57 2016.

 ----------------------------------------------------------------------
 #N Geom=AllCheck Guess=TCheck SCRF=Check Test GenChk RB3LYP/6-31G Freq
 ----------------------------------------------------------------------

 Structure from the checkpoint file:  "Ala-S-opt-freq-tsb2-6-31g.chk"
 -------------------------
 Ala-S-opt-freq-tsb2-6-31g
 -------------------------
 Charge =  0 Multiplicity = 1

                         Standard orientation:
 ---------------------------------------------------------------------
 Center     Atomic      Atomic             Coordinates (Angstroms)
 Number     Number       Type             X           Y           Z
 ---------------------------------------------------------------------
      1          7           0       -0.460917    1.594270   -0.188021
      2          1           0        1.392848    1.474303   -0.170263
      3          6           0       -0.657340    0.333248    0.045905
      4          1           0        1.575556    0.134894    0.909183
      5          6           0       -2.002427   -0.364865    0.087302
      6          6           0        0.491039   -0.513190    0.425295
      7          1           0       -2.147713   -0.871916    1.047270
      8          1           0       -2.815925    0.350755   -0.061089
      9          1           0       -2.071906   -1.132517   -0.694790
     10          8           0        1.983307    0.676893   -0.012474
     11          1           0       -1.313538    2.145367   -0.329853
     12          8           0        0.674210   -1.705665   -0.188832
     13          1           0        0.359327   -1.761757   -1.124888
 ---------------------------------------------------------------------

 SCF Done:  E(RB3LYP) =  -323.487000695     A.U. after    1 cycles

 The electronic state is 1-A.
 Alpha  occ. eigenvalues --  -19.20737 -19.13618 -14.34105 -10.27669 -10.26559
 Alpha  occ. eigenvalues --  -10.21365  -1.09504  -0.98710  -0.93133  -0.76873
 Alpha  occ. eigenvalues --   -0.70062  -0.61363  -0.52885  -0.51192  -0.48990
 Alpha  occ. eigenvalues --   -0.46154  -0.43622  -0.41026  -0.38675  -0.34948
 Alpha  occ. eigenvalues --   -0.33407  -0.29439  -0.27999  -0.22099
 Alpha virt. eigenvalues --   -0.05493  -0.00054   0.04585   0.07913   0.11953
 Alpha virt. eigenvalues --    0.14312   0.14889   0.17175   0.20327   0.21801
 Alpha virt. eigenvalues --    0.26288   0.32547   0.39323   0.52343   0.53019

 Mulliken charges:
               1
     1  N   -0.560456
     2  H    0.394808
     3  C    0.167911
     4  H    0.387817
     5  C   -0.442180
     6  C    0.102917
     7  H    0.189821
     8  H    0.156374
     9  H    0.156974
    10  O   -0.653120
    11  H    0.266355
    12  O   -0.538148
    13  H    0.370927
 Sum of Mulliken charges =   0.00000

 Dipole moment (field-independent basis, Debye):
    X=             -4.8718    Y=             -0.1097    Z=             -1.3801  Tot=              5.0646
 Quadrupole moment (field-independent basis, Debye-Ang):
   XX=            -39.1728   YY=            -37.0847   ZZ=            -35.2356
   XY=             -0.4476   XZ=              0.7413   YZ=              3.0707

  Exact polarizability:  59.506   2.136  60.630   2.188  -1.519  31.612
 Approx polarizability:  90.323  10.084 105.739   2.155  -8.304  44.602

 ******    1 imaginary frequencies (negative Signs) ******

                      1                      2                      3
                      A                      A                      A
 Frequencies --  -1147.9756                90.5699               124.8984
 Red. masses --      1.1424                 1.3096                 2.3827
 Frc consts  --      0.8870                 0.0063                 0.0219
 IR Inten    --    264.1051                 1.2531                 0.2959

                      4                      5                      6
                      A                      A                      A
 Frequencies --    179.4245               266.9836               297.4898
 Red. masses --      4.3982                 3.6694                 5.0951
 Frc consts  --      0.0834                 0.1541                 0.2657
 IR Inten    --     75.8284                51.3110                 1.6443

                      7                      8                      9
                      A                      A                      A
 Frequencies --    343.6398               517.9712               600.2259
 Red. masses --      3.7740                 3.1132                 1.4936
 Frc consts  --      0.2626                 0.4921                 0.3170
 IR Inten    --     52.6025                29.3201                45.8276

                     10                     11                     12
                      A                      A                      A
 Frequencies --    610.5124               662.0260               727.2307
 Red. masses --      2.5421                 3.0431                 1.1591
 Frc consts  --      0.5583                 0.7858                 0.3612
 IR Inten    --     24.7346               147.1989                84.7568

                     13                     14                     15
                      A                      A                      A
 Frequencies --    794.0405               878.8778               956.3905
 Red. masses --      3.0093                 1.2653                 1.3597
 Frc consts  --      1.1179                 0.5759                 0.7328
 IR Inten    --     67.8786                96.0699                83.8100

                     16                     17                     18
                      A                      A                      A
 Frequencies --   1003.1992              1097.3238              1106.9693
 Red. masses --      1.6261                 1.5670                 1.5883
 Frc consts  --      0.9642                 1.1117                 1.1467
 IR Inten    --     97.8613                27.0867               146.1059

                     19                     20                     21
                      A                      A                      A
 Frequencies --   1241.7197              1321.1180              1385.3994
 Red. masses --      2.0558                 1.5014                 3.0438
 Frc consts  --      1.8675                 1.5439                 3.4420
 IR Inten    --     54.4374                19.0648                86.5578

                     22                     23                     24
                      A                      A                      A
 Frequencies --   1451.5714              1503.0115              1514.6371
 Red. masses --      1.1974                 1.0982                 1.0632
 Frc consts  --      1.4865                 1.4617                 1.4370
 IR Inten    --     12.3061               103.5180                13.7192

                     25                     26                     27
                      A                      A                      A
 Frequencies --   1523.8404              1659.9424              2081.3908
 Red. masses --      1.0808                 5.6550                 1.0956
 Frc consts  --      1.4787                 9.1806                 2.7965
 IR Inten    --     24.6178                47.1464                76.0942

                     28                     29                     30
                      A                      A                      A
 Frequencies --   3044.0884              3114.2028              3148.1638
 Red. masses --      1.0382                 1.0942                 1.1015
 Frc consts  --      5.6683                 6.2522                 6.4319
 IR Inten    --      8.7449                 9.3809                10.1593

                     31                     32                     33
                      A                      A                      A
 Frequencies --   3225.3469              3410.1564              3440.9911
 Red. masses --      1.0645                 1.0642                 1.0764
 Frc consts  --      6.5248                 7.2913                 7.5091
 IR Inten    --     86.5390                17.1618                 1.4536

 - Thermochemistry -
 -------------------
 Temperature   298.150 Kelvin.  Pressure   1.00000 Atm.
 Atom     1 has atomic number  7 and mass  14.00307

 Molecular mass:    89.04768 amu.
 Principal axes and moments of inertia in atomic units:
                           1         2         3
     Eigenvalues --   409.97591 570.11604 928.78631
           X            0.99898   0.04485   0.00430
           Y           -0.04489   0.99894   0.00995
           Z           -0.00385  -0.01013   0.99994
 This molecule is an asymmetric top.
 Rotational symmetry number  1.
 Rotational temperatures (Kelvin)      0.21127     0.15192     0.09325
 Rotational constants (GHZ):           4.40207     3.16557     1.94312
    1 imaginary frequencies ignored.
 Zero-point vibrational energy     259131.2 (Joules/Mol)
                                   61.93384 (Kcal/Mol)
 Warning -- explicit consideration of   9 degrees of freedom as
           vibrations may cause significant error
 Vibrational temperatures:    130.31   179.70   258.15   384.13   428.02
          (Kelvin)            494.42   745.24   863.59   878.39   952.51
                             1046.32  1142.45  1264.51  1376.03  1443.38
                             1578.80  1592.68  1786.56  1900.79  1993.28
                             2088.48  2162.50  2179.22  2192.46  2388.28
                             2994.65  4379.76  4480.64  4529.50  4640.55
                             4906.45  4950.81

 Zero-point correction=                           0.098698 (Hartree/Particle)
 Thermal correction to Energy=                    0.105899
 Thermal correction to Enthalpy=                  0.106844
 Thermal correction to Gibbs Free Energy=         0.067671
 Sum of electronic and zero-point Energies=           -323.388303
 Sum of electronic and thermal Energies=              -323.381101
 Sum of electronic and thermal Enthalpies=            -323.380157
 Sum of electronic and thermal Free Energies=         -323.419330

                     E (Thermal)             CV                S
                      KCal/Mol        Cal/Mol-Kelvin    Cal/Mol-Kelvin
 Total                   66.453             24.977             82.446
 Electronic               0.000              0.000              0.000
 Translational            0.889              2.981             39.372
 Rotational               0.889              2.981             26.876
 Vibrational             64.675             19.015             16.198
 Vibration     1          0.602              1.956              3.648
 Vibration     2          0.610              1.928              3.023
 Vibration     3          0.629              1.868              2.334
 Vibration     4          0.672              1.734              1.616
 Vibration     5          0.691              1.678              1.431
 Vibration     6          0.722              1.588              1.195
 Vibration     7          0.873              1.210              0.615
 Vibration     8          0.958              1.031              0.449
 Vibration     9          0.970              1.010              0.432

 Optimization completed.
    -- Stationary point found.
 Normal termination of Gaussian 09 at Sun Apr 10 16:48:05 2016.
