 Gaussian 09, Revision D.01,
 Gaussian 09:  ES64L-G09RevD.01 24-Apr-2013

 -----------------------
 # opt freq rb3lyp/6-31g
 -----------------------

 -----------------------
 Asp-S-opt-freq-p1-6-31g
 -----------------------
 Symbolic Z-matrix:
 Charge =  0 Multiplicity = 1

 SCF Done:  E(RB3LYP) =  -512.061781190     A.U. after   16 cycles
 SCF Done:  E(RB3LYP) =  -512.108562245     A.U. after   16 cycles
 SCF Done:  E(RB3LYP) =  -512.117742839     A.U. after   16 cycles
 SCF Done:  E(RB3LYP) =  -512.130108347     A.U. after   14 cycles
 SCF Done:  E(RB3LYP) =  -512.130843398     A.U. after   13 cycles
 SCF Done:  E(RB3LYP) =  -512.130366346     A.U. after   13 cycles
 SCF Done:  E(RB3LYP) =  -512.130933802     A.U. after   11 cycles
 SCF Done:  E(RB3LYP) =  -512.130971402     A.U. after   12 cycles
 SCF Done:  E(RB3LYP) =  -512.130983704     A.U. after   11 cycles
 SCF Done:  E(RB3LYP) =  -512.130994032     A.U. after   12 cycles
 SCF Done:  E(RB3LYP) =  -512.131003915     A.U. after   10 cycles
 SCF Done:  E(RB3LYP) =  -512.131008957     A.U. after   11 cycles
 SCF Done:  E(RB3LYP) =  -512.131011772     A.U. after   11 cycles
 SCF Done:  E(RB3LYP) =  -512.131012659     A.U. after   10 cycles
 SCF Done:  E(RB3LYP) =  -512.131012815     A.U. after    9 cycles
 SCF Done:  E(RB3LYP) =  -512.131012809     A.U. after    8 cycles
 Optimization completed.
    -- Stationary point found.
 Normal termination of Gaussian 09 at Sun Apr  3 00:24:33 2016.

 -----------------------------------------------------------------
 #N Geom=AllCheck Guess=TCheck SCRF=Check GenChk RB3LYP/6-31G Freq
 -----------------------------------------------------------------

 Structure from the checkpoint file:  "Asp-S-opt-freq-p1-6-31g.chk"
 -----------------------
 Asp-S-opt-freq-p1-6-31g
 -----------------------
 Charge =  0 Multiplicity = 1

                         Standard orientation:
 ---------------------------------------------------------------------
 Center     Atomic      Atomic             Coordinates (Angstroms)
 Number     Number       Type             X           Y           Z
 ---------------------------------------------------------------------
      1          7           0       -1.539483    1.856496   -0.111763
      2          1           0       -1.683296    2.086071    0.865322
      3          6           0       -0.666055    0.706447   -0.358910
      4          1           0       -0.593587    0.560740   -1.439342
      5          6           0        0.725428    0.968627    0.219217
      6          6           0       -1.259480   -0.570546    0.233393
      7          1           0        1.070673    1.951467   -0.120010
      8          1           0        0.693091    0.995227    1.314445
      9          6           0        1.720392   -0.078551   -0.197728
     10          8           0       -2.297910   -1.040056   -0.541455
     11          8           0        1.517520   -0.994065   -1.001531
     12          1           0       -2.396448    1.862447   -0.650474
     13          8           0       -0.946610   -1.093342    1.307229
     14          1           0       -2.703625   -1.834067   -0.129528
     15          8           0        2.938945    0.104451    0.415467
     16          1           0        3.572297   -0.589116    0.128421
 ---------------------------------------------------------------------

 SCF Done:  E(RB3LYP) =  -512.131012809     A.U. after    1 cycles

 The electronic state is 1-A.
 Alpha  occ. eigenvalues --  -19.19994 -19.19931 -19.15463 -19.15409 -14.32841
 Alpha  occ. eigenvalues --  -10.33926 -10.33288 -10.24524 -10.20873  -1.12091
 Alpha  occ. eigenvalues --   -1.11829  -1.03424  -1.03225  -0.91124  -0.79252
 Alpha  occ. eigenvalues --   -0.71120  -0.63921  -0.58650  -0.54013  -0.52602
 Alpha  occ. eigenvalues --   -0.49191  -0.47644  -0.47414  -0.46403  -0.45805
 Alpha  occ. eigenvalues --   -0.41599  -0.40195  -0.39116  -0.38527  -0.37246
 Alpha  occ. eigenvalues --   -0.32654  -0.32002  -0.29677  -0.28610  -0.23769
 Alpha virt. eigenvalues --   -0.01548  -0.01201   0.05783   0.06149   0.08527
 Alpha virt. eigenvalues --    0.11824   0.12144   0.16510   0.17357   0.20140
 Alpha virt. eigenvalues --    0.21230   0.21484   0.25661   0.29335   0.30130

 Mulliken charges:
               1
     1  N   -0.684342
     2  H    0.290359
     3  C   -0.024160
     4  H    0.191912
     5  C   -0.294884
     6  C    0.512815
     7  H    0.201053
     8  H    0.194154
     9  C    0.504496
    10  O   -0.562128
    11  O   -0.421228
    12  H    0.302565
    13  O   -0.426714
    14  H    0.385927
    15  O   -0.556396
    16  H    0.386571
 Sum of Mulliken charges =   0.00000

 Dipole moment (field-independent basis, Debye):
    X=             -1.0549    Y=              0.9684    Z=              0.1795  Tot=              1.4432
 Quadrupole moment (field-independent basis, Debye-Ang):
   XX=            -38.8910   YY=            -52.4253   ZZ=            -56.9825
   XY=             -0.6041   XZ=             -1.0559   YZ=              0.8827

  Exact polarizability:  63.269  -0.649  56.584   7.208   2.789  49.516
 Approx polarizability:  77.836   0.976  81.449  19.191   7.231  86.107

                      1                      2                      3
                      A                      A                      A
 Frequencies --     31.7658                64.1547                77.0786
 Red. masses --      8.8087                 7.3645                 7.1443
 Frc consts  --      0.0052                 0.0179                 0.0250
 IR Inten    --      2.5137                 0.7091                 0.0919

                      4                      5                      6
                      A                      A                      A
 Frequencies --    151.6054               241.4594               276.8664
 Red. masses --      3.9093                 3.6499                 2.8631
 Frc consts  --      0.0529                 0.1254                 0.1293
 IR Inten    --      1.1901                 3.1906                 9.6253

                      7                      8                      9
                      A                      A                      A
 Frequencies --    305.7023               346.2005               393.2346
 Red. masses --      1.2560                 5.3095                 4.0907
 Frc consts  --      0.0692                 0.3749                 0.3727
 IR Inten    --     47.6596                 2.5881                 2.9954

                     10                     11                     12
                      A                      A                      A
 Frequencies --    516.6126               543.5709               596.6568
 Red. masses --      2.0443                 2.6918                 2.0692
 Frc consts  --      0.3215                 0.4686                 0.4340
 IR Inten    --     18.0113                72.1952               149.1253

                     13                     14                     15
                      A                      A                      A
 Frequencies --    614.1413               637.1621               648.4836
 Red. masses --      1.4722                 3.8280                 1.4843
 Frc consts  --      0.3271                 0.9156                 0.3678
 IR Inten    --    170.2986                26.4370               206.6520

                     16                     17                     18
                      A                      A                      A
 Frequencies --    669.1135               741.8903               819.5967
 Red. masses --      1.5836                 4.4334                 3.9946
 Frc consts  --      0.4177                 1.4377                 1.5810
 IR Inten    --    105.6288                30.9691                 6.0678

                     19                     20                     21
                      A                      A                      A
 Frequencies --    902.9870               998.8519              1044.9473
 Red. masses --      3.6367                 2.1060                 2.9082
 Frc consts  --      1.7471                 1.2380                 1.8710
 IR Inten    --      0.6569                14.1639                30.7224

                     22                     23                     24
                      A                      A                      A
 Frequencies --   1104.3930              1127.4088              1143.2011
 Red. masses --      2.5697                 1.8322                 2.9269
 Frc consts  --      1.8466                 1.3721                 2.2537
 IR Inten    --    429.0028                26.8818               119.1764

                     25                     26                     27
                      A                      A                      A
 Frequencies --   1201.8084              1260.8784              1314.6398
 Red. masses --      1.3986                 1.3481                 1.5400
 Frc consts  --      1.1902                 1.2627                 1.5681
 IR Inten    --     11.9575                 9.6802                 9.0325

                     28                     29                     30
                      A                      A                      A
 Frequencies --   1332.3898              1402.5716              1414.2802
 Red. masses --      1.6639                 1.7686                 1.5368
 Frc consts  --      1.7403                 2.0499                 1.8111
 IR Inten    --      3.6682                53.4789                10.4244

                     31                     32                     33
                      A                      A                      A
 Frequencies --   1437.4238              1496.4251              1705.3822
 Red. masses --      1.8450                 1.0947                 1.1067
 Frc consts  --      2.2461                 1.4443                 1.8963
 IR Inten    --     52.5885                34.4935                34.9595

                     34                     35                     36
                      A                      A                      A
 Frequencies --   1741.1461              1745.6212              3080.1849
 Red. masses --      7.9880                 8.5201                 1.0598
 Frc consts  --     14.2678                15.2966                 5.9242
 IR Inten    --    274.7353               133.9769                 3.3004

                     37                     38                     39
                      A                      A                      A
 Frequencies --   3117.9865              3132.3962              3541.6740
 Red. masses --      1.0897                 1.0947                 1.0449
 Frc consts  --      6.2420                 6.3284                 7.7226
 IR Inten    --      1.1512                 4.6098                 3.0585

                     40                     41                     42
                      A                      A                      A
 Frequencies --   3606.0201              3609.8341              3665.8042
 Red. masses --      1.0639                 1.0639                 1.0983
 Frc consts  --      8.1509                 8.1680                 8.6959
 IR Inten    --     28.6364                29.9263                 5.7636

 - Thermochemistry -
 -------------------
 Temperature   298.150 Kelvin.  Pressure   1.00000 Atm.
 Atom     1 has atomic number  7 and mass  14.00307

 Molecular mass:   133.03751 amu.
 Principal axes and moments of inertia in atomic units:
                           1         2         3
     Eigenvalues --   706.146091654.529091937.32881
           X            0.99992  -0.01032   0.00723
           Y            0.01023   0.99987   0.01256
           Z           -0.00736  -0.01249   0.99989
 This molecule is an asymmetric top.
 Rotational symmetry number  1.
 Warning -- assumption of classical behavior for rotation
           may cause significant error
 Rotational temperatures (Kelvin)      0.12266     0.05235     0.04471
 Rotational constants (GHZ):           2.55576     1.09079     0.93156
 Zero-point vibrational energy     321816.7 (Joules/Mol)
                                   76.91604 (Kcal/Mol)
 Warning -- explicit consideration of  13 degrees of freedom as
           vibrations may cause significant error
 Vibrational temperatures:     45.70    92.30   110.90   218.13   347.41
          (Kelvin)            398.35   439.84   498.10   565.78   743.29
                              782.08   858.45   883.61   916.73   933.02
                              962.70  1067.41  1179.22  1299.20  1437.12
                             1503.44  1588.97  1622.09  1644.81  1729.13
                             1814.12  1891.47  1917.01  2017.99  2034.83
                             2068.13  2153.02  2453.66  2505.12  2511.56
                             4431.69  4486.08  4506.81  5095.67  5188.25
                             5193.74  5274.27

 Zero-point correction=                           0.122574 (Hartree/Particle)
 Thermal correction to Energy=                    0.132110
 Thermal correction to Enthalpy=                  0.133055
 Thermal correction to Gibbs Free Energy=         0.086669
 Sum of electronic and zero-point Energies=           -512.008439
 Sum of electronic and thermal Energies=              -511.998902
 Sum of electronic and thermal Enthalpies=            -511.997958
 Sum of electronic and thermal Free Energies=         -512.044344

                     E (Thermal)             CV                S
                      KCal/Mol        Cal/Mol-Kelvin    Cal/Mol-Kelvin
 Total                   82.901             33.661             97.627
 Electronic               0.000              0.000              0.000
 Translational            0.889              2.981             40.569
 Rotational               0.889              2.981             29.205
 Vibrational             81.123             27.699             27.853
 Vibration     1          0.594              1.983              5.716
 Vibration     2          0.597              1.971              4.325
 Vibration     3          0.599              1.964              3.964
 Vibration     4          0.619              1.901              2.652
 Vibration     5          0.658              1.777              1.792
 Vibration     6          0.678              1.716              1.553
 Vibration     7          0.696              1.663              1.385
 Vibration     8          0.724              1.583              1.183
 Vibration     9          0.760              1.485              0.988
 Vibration    10          0.872              1.213              0.618
 Vibration    11          0.899              1.154              0.558
 Vibration    12          0.954              1.039              0.455
 Vibration    13          0.974              1.002              0.426

 Optimization completed.
    -- Stationary point found.
 Normal termination of Gaussian 09 at Sun Apr  3 00:29:38 2016.
