 Gaussian 09, Revision D.01,
 Gaussian 09:  ES64L-G09RevD.01 24-Apr-2013

 ------------------------------------------------
 #p opt=(calcfc,ts) freq rb3lyp/6-31g iop(1/11=1)
 ------------------------------------------------

 -------------------------
 Ala-S-opt-freq-tsa3-6-31g
 -------------------------
 Symbolic Z-matrix:
 Charge =  0 Multiplicity = 1

 SCF Done:  E(RB3LYP) =  -323.331722861     A.U. after   17 cycles
 SCF Done:  E(RB3LYP) =  -323.373043441     A.U. after   15 cycles
 SCF Done:  E(RB3LYP) =  -323.406073891     A.U. after   15 cycles
 SCF Done:  E(RB3LYP) =  -323.442112066     A.U. after   14 cycles
 SCF Done:  E(RB3LYP) =  -323.478128678     A.U. after   13 cycles
 SCF Done:  E(RB3LYP) =  -323.508919061     A.U. after   13 cycles
 SCF Done:  E(RB3LYP) =  -323.531416171     A.U. after   13 cycles
 SCF Done:  E(RB3LYP) =  -323.549684401     A.U. after   13 cycles
 SCF Done:  E(RB3LYP) =  -323.560108892     A.U. after   13 cycles
 SCF Done:  E(RB3LYP) =  -323.567945304     A.U. after   13 cycles
 SCF Done:  E(RB3LYP) =  -323.594611810     A.U. after   13 cycles
 SCF Done:  E(RB3LYP) =  -323.594785723     A.U. after   12 cycles
 SCF Done:  E(RB3LYP) =  -323.594800656     A.U. after   12 cycles
 SCF Done:  E(RB3LYP) =  -323.594807867     A.U. after   11 cycles
 SCF Done:  E(RB3LYP) =  -323.594808175     A.U. after    8 cycles
 SCF Done:  E(RB3LYP) =  -323.594808089     A.U. after    8 cycles
 SCF Done:  E(RB3LYP) =  -323.594808038     A.U. after    7 cycles
 SCF Done:  E(RB3LYP) =  -323.594807872     A.U. after    8 cycles
 SCF Done:  E(RB3LYP) =  -323.594808057     A.U. after    8 cycles
 Optimization completed.
    -- Stationary point found.
 Normal termination of Gaussian 09 at Tue Apr 12 10:24:45 2016.

 ----------------------------------------------------------------------
 #P Geom=AllCheck Guess=TCheck SCRF=Check Test GenChk RB3LYP/6-31G Freq
 ----------------------------------------------------------------------

 Structure from the checkpoint file:  "Ala-S-opt-freq-tsa3-6-31g.chk"
 -------------------------
 Ala-S-opt-freq-tsa3-6-31g
 -------------------------
 Charge =  0 Multiplicity = 1

                         Standard orientation:
 ---------------------------------------------------------------------
 Center     Atomic      Atomic             Coordinates (Angstroms)
 Number     Number       Type             X           Y           Z
 ---------------------------------------------------------------------
      1          7           0        1.273975   -1.326181    0.032840
      2          1           0        2.266569   -1.411711   -0.086351
      3          6           0        0.664672   -0.073418    0.000854
      4          1           0       -1.882079    1.453076   -0.691635
      5          6           0        1.570263    1.135815   -0.004464
      6          6           0       -0.674441    0.045231   -0.009679
      7          1           0        2.622984    0.834996    0.014434
      8          1           0        1.411569    1.752454   -0.896060
      9          1           0        1.385219    1.773836    0.865374
     10          8           0       -1.507158   -1.088970   -0.098230
     11          1           0        0.701703   -2.147638   -0.063615
     12          8           0       -1.329042    1.279738    0.101114
     13          1           0       -2.097152   -1.143653    0.684626
 ---------------------------------------------------------------------

 SCF Done:  E(RB3LYP) =  -323.594808057     A.U. after    1 cycles

 The electronic state is 1-A.
 Alpha  occ. eigenvalues --  -19.15295 -19.15287 -14.31669 -10.24658 -10.21261
 Alpha  occ. eigenvalues --  -10.17584  -1.06097  -1.00104  -0.89693  -0.74810
 Alpha  occ. eigenvalues --   -0.68054  -0.56860  -0.54731  -0.51963  -0.47633
 Alpha  occ. eigenvalues --   -0.42319  -0.40101  -0.39078  -0.38759  -0.37705
 Alpha  occ. eigenvalues --   -0.30861  -0.30150  -0.28949  -0.16504
 Alpha virt. eigenvalues --    0.06130   0.06561   0.09030   0.09817   0.14366
 Alpha virt. eigenvalues --    0.14980   0.17165   0.19580   0.23332   0.24997
 Alpha virt. eigenvalues --    0.28083   0.41865   0.44757   0.55748   0.57256

 Mulliken charges:
               1
     1  N   -0.790184
     2  H    0.301595
     3  C    0.371761
     4  H    0.365862
     5  C   -0.451462
     6  C    0.282354
     7  H    0.124369
     8  H    0.155247
     9  H    0.173348
    10  O   -0.614207
    11  H    0.320349
    12  O   -0.605720
    13  H    0.366689
 Sum of Mulliken charges =   0.00000

 Dipole moment (field-independent basis, Debye):
    X=              0.6373    Y=             -0.4633    Z=             -0.4227  Tot=              0.8941
 Quadrupole moment (field-independent basis, Debye-Ang):
   XX=            -28.3142   YY=            -34.6792   ZZ=            -36.5352
   XY=             -1.3981   XZ=             -1.0431   YZ=             -3.7933

  Exact polarizability:  61.710  -3.370  46.611  -0.073  -1.666  26.794
 Approx polarizability:  88.357  -9.224  60.972   0.594  -0.895  35.231

 ******    1 imaginary frequencies (negative Signs) ******

                      1                      2                      3
                      A                      A                      A
 Frequencies --   -172.0348               132.0296               207.5139
 Red. masses --      1.0408                 1.8321                 1.9307
 Frc consts  --      0.0181                 0.0188                 0.0490
 IR Inten    --      1.0205                98.2875                13.3208

                      4                      5                      6
                      A                      A                      A
 Frequencies --    222.0492               273.8077               315.7907
 Red. masses --      4.2194                 1.1324                 2.4610
 Frc consts  --      0.1226                 0.0500                 0.1446
 IR Inten    --      0.5595               165.2394                60.0220

                      7                      8                      9
                      A                      A                      A
 Frequencies --    354.3722               420.7469               495.9965
 Red. masses --      2.2025                 1.4022                 1.3685
 Frc consts  --      0.1630                 0.1463                 0.1984
 IR Inten    --      6.9879               146.9459               173.8346

                     10                     11                     12
                      A                      A                      A
 Frequencies --    528.3514               557.0493               575.8876
 Red. masses --      2.5524                 4.8041                 3.6084
 Frc consts  --      0.4198                 0.8783                 0.7051
 IR Inten    --    132.3419                15.4396                31.7274

                     13                     14                     15
                      A                      A                      A
 Frequencies --    745.3742               974.0499              1051.2361
 Red. masses --      5.8060                 2.5881                 1.3574
 Frc consts  --      1.9005                 1.4467                 0.8838
 IR Inten    --      3.3486                73.4259                 6.4057

                     16                     17                     18
                      A                      A                      A
 Frequencies --   1089.6595              1148.0120              1184.5788
 Red. masses --      1.4195                 1.4350                 4.0770
 Frc consts  --      0.9930                 1.1143                 3.3707
 IR Inten    --      6.3999               121.6410               243.2166

                     19                     20                     21
                      A                      A                      A
 Frequencies --   1267.7155              1315.5478              1384.0484
 Red. masses --      1.3726                 1.7472                 4.7619
 Frc consts  --      1.2996                 1.7816                 5.3744
 IR Inten    --     17.0083                13.0900                47.7416

                     22                     23                     24
                      A                      A                      A
 Frequencies --   1467.4266              1523.7566              1541.7475
 Red. masses --      1.2065                 1.0465                 1.0667
 Frc consts  --      1.5307                 1.4316                 1.4939
 IR Inten    --      3.4660                 6.6640                 2.1062

                     25                     26                     27
                      A                      A                      A
 Frequencies --   1684.9303              1825.5512              3053.9099
 Red. masses --      1.1339                 7.6835                 1.0356
 Frc consts  --      1.8967                15.0868                 5.6908
 IR Inten    --    100.7956                13.2693                28.9735

                     28                     29                     30
                      A                      A                      A
 Frequencies --   3120.6622              3131.8372              3541.8541
 Red. masses --      1.0990                 1.1000                 1.0656
 Frc consts  --      6.3058                 6.3568                 7.8763
 IR Inten    --     20.6581                18.1124                 2.6113

                     31                     32                     33
                      A                      A                      A
 Frequencies --   3555.7659              3645.8167              3781.2689
 Red. masses --      1.0648                 1.0446                 1.1031
 Frc consts  --      7.9321                 8.1809                 9.2929
 IR Inten    --      1.7320                28.9183                23.2381

 - Thermochemistry -
 -------------------
 Temperature   298.150 Kelvin.  Pressure   1.00000 Atm.
 Atom     1 has atomic number  7 and mass  14.00307

 Molecular mass:    89.04768 amu.
 Principal axes and moments of inertia in atomic units:
                           1         2         3
     Eigenvalues --   375.64844 553.26742 908.63881
           X            0.99909   0.04254  -0.00296
           Y           -0.04258   0.99897  -0.01554
           Z            0.00229   0.01565   0.99987
 This molecule is an asymmetric top.
 Rotational symmetry number  1.
 Rotational temperatures (Kelvin)      0.23057     0.15655     0.09532
 Rotational constants (GHZ):           4.80434     3.26197     1.98620
    1 imaginary frequencies ignored.
 Zero-point vibrational energy     275849.0 (Joules/Mol)
                                   65.92948 (Kcal/Mol)
 Warning -- explicit consideration of  11 degrees of freedom as
           vibrations may cause significant error
 Vibrational temperatures:    189.96   298.57   319.48   393.95   454.35
          (Kelvin)            509.86   605.36   713.63   760.18   801.47
                              828.57  1072.43  1401.44  1512.49  1567.78
                             1651.73  1704.34  1823.96  1892.78  1991.33
                             2111.30  2192.34  2218.23  2424.24  2626.56
                             4393.89  4489.93  4506.01  5095.93  5115.95
                             5245.51  5440.40

 Zero-point correction=                           0.105065 (Hartree/Particle)
 Thermal correction to Energy=                    0.112220
 Thermal correction to Enthalpy=                  0.113164
 Thermal correction to Gibbs Free Energy=         0.074692
 Sum of electronic and zero-point Energies=           -323.489743
 Sum of electronic and thermal Energies=              -323.482588
 Sum of electronic and thermal Enthalpies=            -323.481644
 Sum of electronic and thermal Free Energies=         -323.520116

                     E (Thermal)             CV                S
                      KCal/Mol        Cal/Mol-Kelvin    Cal/Mol-Kelvin
 Total                   70.419             25.448             80.971
 Electronic               0.000              0.000              0.000
 Translational            0.889              2.981             39.372
 Rotational               0.889              2.981             26.737
 Vibrational             68.642             19.486             14.861
 Vibration     1          0.612              1.921              2.916
 Vibration     2          0.641              1.829              2.065
 Vibration     3          0.648              1.808              1.942
 Vibration     4          0.676              1.722              1.572
 Vibration     5          0.703              1.643              1.332
 Vibration     6          0.730              1.566              1.147
 Vibration     7          0.783              1.425              0.889
 Vibration     8          0.852              1.259              0.668
 Vibration     9          0.883              1.187              0.591
 Vibration    10          0.913              1.124              0.530
 Vibration    11          0.932              1.083              0.493

 Optimization completed.
    -- Stationary point found.
 Normal termination of Gaussian 09 at Tue Apr 12 10:26:17 2016.
