 Gaussian 09, Revision D.01,
 Gaussian 09:  ES64L-G09RevD.01 24-Apr-2013

 ------------------------
 #p opt freq rb3lyp/6-31g
 ------------------------

 ------------------------
 Ala-S-opt-freq-pb1-6-31g
 ------------------------
 Symbolic Z-matrix:
 Charge =  0 Multiplicity = 1

 SCF Done:  E(RB3LYP) =  -323.418649605     A.U. after   15 cycles
 SCF Done:  E(RB3LYP) =  -323.465486362     A.U. after   14 cycles
 SCF Done:  E(RB3LYP) =  -323.533011737     A.U. after   15 cycles
 SCF Done:  E(RB3LYP) =  -323.607939571     A.U. after   15 cycles
 SCF Done:  E(RB3LYP) =  -323.618309277     A.U. after   15 cycles
 SCF Done:  E(RB3LYP) =  -323.621883551     A.U. after   13 cycles
 SCF Done:  E(RB3LYP) =  -323.623352968     A.U. after   13 cycles
 SCF Done:  E(RB3LYP) =  -323.625474185     A.U. after   14 cycles
 SCF Done:  E(RB3LYP) =  -323.627532454     A.U. after   14 cycles
 SCF Done:  E(RB3LYP) =  -323.628164423     A.U. after   13 cycles
 SCF Done:  E(RB3LYP) =  -323.632796303     A.U. after   12 cycles
 SCF Done:  E(RB3LYP) =  -323.632839634     A.U. after   11 cycles
 SCF Done:  E(RB3LYP) =  -323.632866306     A.U. after   11 cycles
 SCF Done:  E(RB3LYP) =  -323.632896688     A.U. after   12 cycles
 SCF Done:  E(RB3LYP) =  -323.632911374     A.U. after   11 cycles
 SCF Done:  E(RB3LYP) =  -323.632913991     A.U. after   11 cycles
 SCF Done:  E(RB3LYP) =  -323.632913344     A.U. after   11 cycles
 SCF Done:  E(RB3LYP) =  -323.632912449     A.U. after   11 cycles
 SCF Done:  E(RB3LYP) =  -323.632912386     A.U. after    8 cycles
 Optimization completed.
    -- Stationary point found.
 Normal termination of Gaussian 09 at Thu Apr 14 14:38:17 2016.

 -----------------------------------------------------------------
 #P Geom=AllCheck Guess=TCheck SCRF=Check GenChk RB3LYP/6-31G Freq
 -----------------------------------------------------------------

 Structure from the checkpoint file:  "Ala-S-opt-freq-pb1-6-31g.chk"
 ------------------------
 Ala-S-opt-freq-pb1-6-31g
 ------------------------
 Charge =  0 Multiplicity = 1

                         Standard orientation:
 ---------------------------------------------------------------------
 Center     Atomic      Atomic             Coordinates (Angstroms)
 Number     Number       Type             X           Y           Z
 ---------------------------------------------------------------------
      1          7           0       -1.362372   -1.103136    0.482482
      2          1           0       -1.125121   -1.693683    1.270899
      3          6           0       -0.668371    0.180226    0.438325
      4          1           0       -0.725451    0.638417    1.430372
      5          6           0       -1.342440    1.111878   -0.587829
      6          6           0        0.822245    0.069994    0.125402
      7          1           0       -2.395392    1.228466   -0.318737
      8          1           0       -0.862242    2.095962   -0.605444
      9          1           0       -1.282714    0.679308   -1.592704
     10          8           0        1.738990    0.642302    0.719919
     11          1           0       -1.349737   -1.609905   -0.395567
     12          8           0        1.059398   -0.764919   -0.954423
     13          1           0        2.021544   -0.808270   -1.145556
 ---------------------------------------------------------------------

 SCF Done:  E(RB3LYP) =  -323.632912386     A.U. after    1 cycles

 The electronic state is 1-A.
 Alpha  occ. eigenvalues --  -19.19781 -19.15104 -14.31437 -10.32843 -10.23689
 Alpha  occ. eigenvalues --  -10.18079  -1.11542  -1.02924  -0.89880  -0.75731
 Alpha  occ. eigenvalues --   -0.67116  -0.60799  -0.51063  -0.50553  -0.47075
 Alpha  occ. eigenvalues --   -0.45461  -0.43792  -0.40710  -0.38321  -0.37417
 Alpha  occ. eigenvalues --   -0.36449  -0.32087  -0.29208  -0.22640
 Alpha virt. eigenvalues --   -0.01229   0.05382   0.09261   0.12835   0.13288
 Alpha virt. eigenvalues --    0.16406   0.17539   0.18463   0.19277   0.21231
 Alpha virt. eigenvalues --    0.25591   0.30563   0.36138   0.52590   0.56101

 Mulliken charges:
               1
     1  N   -0.669266
     2  H    0.287296
     3  C   -0.034280
     4  H    0.170368
     5  C   -0.394062
     6  C    0.480551
     7  H    0.163892
     8  H    0.146472
     9  H    0.149571
    10  O   -0.413612
    11  H    0.295022
    12  O   -0.566885
    13  H    0.384933
 Sum of Mulliken charges =   0.00000

 Dipole moment (field-independent basis, Debye):
    X=             -0.1085    Y=             -1.2738    Z=             -1.1195  Tot=              1.6993
 Quadrupole moment (field-independent basis, Debye-Ang):
   XX=            -39.4300   YY=            -34.0990   ZZ=            -35.2995
   XY=             -4.2667   XZ=             -3.6603   YZ=             -1.7577

  Exact polarizability:  46.065   2.208  41.286   0.659   3.605  40.526
 Approx polarizability:  60.715   9.229  56.499   5.590  11.632  59.099

                      1                      2                      3
                      A                      A                      A
 Frequencies --     30.0987               223.3077               236.5206
 Red. masses --      5.2162                 1.3365                 2.3714
 Frc consts  --      0.0028                 0.0393                 0.0782
 IR Inten    --      0.2883                 1.1457                 0.2787

                      4                      5                      6
                      A                      A                      A
 Frequencies --    253.5772               290.1956               375.2232
 Red. masses --      1.4647                 1.7024                 2.7937
 Frc consts  --      0.0555                 0.0845                 0.2317
 IR Inten    --     26.1529                27.1946                15.4438

                      7                      8                      9
                      A                      A                      A
 Frequencies --    528.2854               598.5706               614.5254
 Red. masses --      3.8688                 2.0213                 1.3194
 Frc consts  --      0.6362                 0.4267                 0.2936
 IR Inten    --     12.8295                71.9876               124.9232

                     10                     11                     12
                      A                      A                      A
 Frequencies --    666.3202               751.8847               784.2179
 Red. masses --      1.6006                 4.5213                 3.7991
 Frc consts  --      0.4187                 1.5060                 1.3766
 IR Inten    --    294.9121                24.6495                 9.2307

                     13                     14                     15
                      A                      A                      A
 Frequencies --    929.6296              1031.7828              1043.8790
 Red. masses --      2.4358                 1.2802                 1.8761
 Frc consts  --      1.2403                 0.8030                 1.2045
 IR Inten    --     12.0972                 7.1036               169.2835

                     16                     17                     18
                      A                      A                      A
 Frequencies --   1141.3903              1176.4489              1282.2417
 Red. masses --      2.6820                 1.8236                 1.7333
 Frc consts  --      2.0586                 1.4870                 1.6790
 IR Inten    --     48.2523                57.1415                 2.6589

                     19                     20                     21
                      A                      A                      A
 Frequencies --   1332.9338              1368.4401              1419.4485
 Red. masses --      1.8427                 1.5951                 1.2567
 Frc consts  --      1.9290                 1.7600                 1.4919
 IR Inten    --      7.3316                26.5901                 7.5185

                     22                     23                     24
                      A                      A                      A
 Frequencies --   1448.0382              1532.4997              1542.8839
 Red. masses --      1.2035                 1.0462                 1.0527
 Frc consts  --      1.4869                 1.4476                 1.4765
 IR Inten    --      8.3592                 9.6176                 4.7821

                     25                     26                     27
                      A                      A                      A
 Frequencies --   1712.7919              1742.6651              3056.6728
 Red. masses --      1.0929                 8.9956                 1.0340
 Frc consts  --      1.8890                16.0956                 5.6923
 IR Inten    --     31.9524               221.0612                15.6869

                     28                     29                     30
                      A                      A                      A
 Frequencies --   3100.0772              3135.9818              3155.9432
 Red. masses --      1.0860                 1.1000                 1.1008
 Frc consts  --      6.1494                 6.3736                 6.4599
 IR Inten    --      6.3619                27.7074                16.3670

                     31                     32                     33
                      A                      A                      A
 Frequencies --   3538.4287              3610.2625              3655.3001
 Red. masses --      1.0447                 1.0640                 1.0979
 Frc consts  --      7.7063                 8.1712                 8.6432
 IR Inten    --      1.4483                26.5000                 3.2084

 - Thermochemistry -
 -------------------
 Temperature   298.150 Kelvin.  Pressure   1.00000 Atm.
 Atom     1 has atomic number  7 and mass  14.00307

 Molecular mass:    89.04768 amu.
 Principal axes and moments of inertia in atomic units:
                           1         2         3
     Eigenvalues --   364.36235 656.47480 730.45699
           X            0.99896  -0.04551  -0.00391
           Y            0.04476   0.99235  -0.11502
           Z            0.00911   0.11473   0.99336
 This molecule is an asymmetric top.
 Rotational symmetry number  1.
 Rotational temperatures (Kelvin)      0.23771     0.13194     0.11857
 Rotational constants (GHZ):           4.95315     2.74914     2.47070
 Zero-point vibrational energy     282979.4 (Joules/Mol)
                                   67.63371 (Kcal/Mol)
 Warning -- explicit consideration of   9 degrees of freedom as
           vibrations may cause significant error
 Vibrational temperatures:     43.31   321.29   340.30   364.84   417.53
          (Kelvin)            539.86   760.08   861.21   884.16   958.68
                             1081.79  1128.31  1337.53  1484.50  1501.91
                             1642.20  1692.65  1844.86  1917.79  1968.88
                             2042.27  2083.40  2204.92  2219.86  2464.32
                             2507.30  4397.86  4460.31  4511.97  4540.69
                             5091.00  5194.36  5259.15

 Zero-point correction=                           0.107781 (Hartree/Particle)
 Thermal correction to Energy=                    0.114797
 Thermal correction to Enthalpy=                  0.115742
 Thermal correction to Gibbs Free Energy=         0.076468
 Sum of electronic and zero-point Energies=           -323.525131
 Sum of electronic and thermal Energies=              -323.518115
 Sum of electronic and thermal Enthalpies=            -323.517171
 Sum of electronic and thermal Free Energies=         -323.556444

                     E (Thermal)             CV                S
                      KCal/Mol        Cal/Mol-Kelvin    Cal/Mol-Kelvin
 Total                   72.036             24.434             82.658
 Electronic               0.000              0.000              0.000
 Translational            0.889              2.981             39.372
 Rotational               0.889              2.981             26.660
 Vibrational             70.259             18.472             16.625
 Vibration     1          0.594              1.984              5.823
 Vibration     2          0.649              1.806              1.932
 Vibration     3          0.655              1.785              1.829
 Vibration     4          0.665              1.757              1.706
 Vibration     5          0.686              1.692              1.473
 Vibration     6          0.746              1.523              1.058
 Vibration     7          0.883              1.187              0.591
 Vibration     8          0.957              1.035              0.452
 Vibration     9          0.974              1.001              0.425

 Normal termination of Gaussian 09 at Thu Apr 14 14:40:15 2016.
