 Gaussian 09, Revision D.01,
 Gaussian 09:  ES64L-G09RevD.01 24-Apr-2013

 -----------------------------------------------
 # opt=(calcfc,ts) freq rb3lyp/6-31g iop(1/11=1)
 -----------------------------------------------

 -------------------------
 Ala-S-opt-freq-tsb1-6-31g
 -------------------------
 Symbolic Z-matrix:
 Charge =  0 Multiplicity = 1

 SCF Done:  E(RB3LYP) =  -323.379808678     A.U. after   21 cycles
 SCF Done:  E(RB3LYP) =  -323.392780382     A.U. after   17 cycles
 SCF Done:  E(RB3LYP) =  -323.402885531     A.U. after   17 cycles
 SCF Done:  E(RB3LYP) =  -323.408040693     A.U. after   16 cycles
 SCF Done:  E(RB3LYP) =  -323.412266884     A.U. after   17 cycles
 SCF Done:  E(RB3LYP) =  -323.416426048     A.U. after   17 cycles
 SCF Done:  E(RB3LYP) =  -323.417919123     A.U. after   16 cycles
 SCF Done:  E(RB3LYP) =  -323.426235620     A.U. after   16 cycles
 SCF Done:  E(RB3LYP) =  -323.435652417     A.U. after   15 cycles
 SCF Done:  E(RB3LYP) =  -323.443564534     A.U. after   15 cycles
 SCF Done:  E(RB3LYP) =  -323.533759834     A.U. after   10 cycles
 SCF Done:  E(RB3LYP) =  -323.533759322     A.U. after    9 cycles
 SCF Done:  E(RB3LYP) =  -323.532885978     A.U. after   14 cycles
 SCF Done:  E(RB3LYP) =  -323.533615706     A.U. after   14 cycles
 SCF Done:  E(RB3LYP) =  -323.533676954     A.U. after   12 cycles
 SCF Done:  E(RB3LYP) =  -323.533758195     A.U. after   12 cycles
 SCF Done:  E(RB3LYP) =  -323.533759496     A.U. after    9 cycles
 SCF Done:  E(RB3LYP) =  -323.533759706     A.U. after    8 cycles
 SCF Done:  E(RB3LYP) =  -323.533759757     A.U. after    8 cycles
 Optimization completed.
    -- Stationary point found.
 Normal termination of Gaussian 09 at Mon Apr 11 22:55:25 2016.

 ----------------------------------------------------------------------
 #N Geom=AllCheck Guess=TCheck SCRF=Check Test GenChk RB3LYP/6-31G Freq
 ----------------------------------------------------------------------

 Structure from the checkpoint file:  "Ala-S-opt-freq-tsb1-6-31g.chk"
 -------------------------
 Ala-S-opt-freq-tsb1-6-31g
 -------------------------
 Charge =  0 Multiplicity = 1

                         Standard orientation:
 ---------------------------------------------------------------------
 Center     Atomic      Atomic             Coordinates (Angstroms)
 Number     Number       Type             X           Y           Z
 ---------------------------------------------------------------------
      1          7           0       -1.113932   -1.433419    0.023983
      2          1           0       -2.009125   -1.519043   -0.446610
      3          6           0       -0.616685    0.075253    0.258103
      4          1           0       -0.994818   -0.946541    1.096659
      5          6           0       -1.611550    1.123456   -0.134942
      6          6           0        0.779049    0.240727    0.041495
      7          1           0       -2.550034    1.054032    0.428510
      8          1           0       -1.170638    2.101924    0.077528
      9          1           0       -1.856847    1.097648   -1.211007
     10          8           0        1.424988    1.308673    0.035821
     11          1           0       -0.360294   -2.030537   -0.308563
     12          8           0        1.452755   -1.000661   -0.111370
     13          1           0        2.412451   -0.824261   -0.187943
 ---------------------------------------------------------------------

 SCF Done:  E(RB3LYP) =  -323.533759757     A.U. after    1 cycles

 The electronic state is 1-A.
 Alpha  occ. eigenvalues --  -19.16931 -19.10611 -14.38619 -10.29744 -10.21116
 Alpha  occ. eigenvalues --  -10.18266  -1.07506  -0.98798  -0.94544  -0.75972
 Alpha  occ. eigenvalues --   -0.68094  -0.59630  -0.54941  -0.53407  -0.45124
 Alpha  occ. eigenvalues --   -0.43610  -0.41571  -0.40410  -0.39253  -0.37647
 Alpha  occ. eigenvalues --   -0.34990  -0.29323  -0.25071  -0.19341
 Alpha virt. eigenvalues --    0.01215   0.06280   0.08880   0.10076   0.11672
 Alpha virt. eigenvalues --    0.13377   0.14904   0.17791   0.18863   0.22286
 Alpha virt. eigenvalues --    0.27743   0.36238   0.36791   0.53179   0.55470

 Mulliken charges:
               1
     1  N   -0.753706
     2  H    0.335204
     3  C   -0.113049
     4  H    0.388938
     5  C   -0.448855
     6  C    0.491085
     7  H    0.130045
     8  H    0.192353
     9  H    0.129550
    10  O   -0.473009
    11  H    0.371632
    12  O   -0.632829
    13  H    0.382641
 Sum of Mulliken charges =   0.00000

 Dipole moment (field-independent basis, Debye):
    X=             -2.7767    Y=             -3.5223    Z=             -0.8729  Tot=              4.5693
 Quadrupole moment (field-independent basis, Debye-Ang):
   XX=            -30.8728   YY=            -38.0366   ZZ=            -36.7584
   XY=             -2.5082   XZ=              0.4580   YZ=              0.9941

  Exact polarizability:  60.081   5.629  53.901  -1.502  -0.283  29.376
 Approx polarizability:  84.713  20.906  89.136  -5.514  -1.899  40.085

 ******    1 imaginary frequencies (negative Signs) ******

                      1                      2                      3
                      A                      A                      A
 Frequencies --  -1607.4778               141.3351               192.2533
 Red. masses --      1.1030                 4.7983                 1.0660
 Frc consts  --      1.6793                 0.0565                 0.0232
 IR Inten    --   1990.2820                 0.0730                 0.0192

                      4                      5                      6
                      A                      A                      A
 Frequencies --    241.2338               290.7387               295.1985
 Red. masses --      3.4417                 1.4939                 2.0774
 Frc consts  --      0.1180                 0.0744                 0.1067
 IR Inten    --      8.9445                34.3798                 8.4900

                      7                      8                      9
                      A                      A                      A
 Frequencies --    334.4056               508.9297               520.8490
 Red. masses --      2.2203                 3.2792                 4.8855
 Frc consts  --      0.1463                 0.5004                 0.7809
 IR Inten    --      9.0094                53.9272                 9.7969

                     10                     11                     12
                      A                      A                      A
 Frequencies --    554.6122               668.5210               731.5869
 Red. masses --      1.3345                 4.8871                 8.1908
 Frc consts  --      0.2419                 1.2869                 2.5829
 IR Inten    --    112.6441                45.8056                53.0553

                     13                     14                     15
                      A                      A                      A
 Frequencies --    866.6867               952.1979              1004.8190
 Red. masses --      3.5557                 1.2517                 1.4035
 Frc consts  --      1.5736                 0.6687                 0.8349
 IR Inten    --     16.5730               185.5946                49.4131

                     16                     17                     18
                      A                      A                      A
 Frequencies --   1062.3373              1092.8819              1127.5046
 Red. masses --      1.9913                 1.6359                 1.6473
 Frc consts  --      1.3241                 1.1512                 1.2339
 IR Inten    --    330.7001                56.4083                27.6520

                     19                     20                     21
                      A                      A                      A
 Frequencies --   1271.0238              1400.8451              1446.1622
 Red. masses --      1.6512                 2.0051                 1.2790
 Frc consts  --      1.5716                 2.3183                 1.5760
 IR Inten    --      1.5633                32.4825                65.1851

                     22                     23                     24
                      A                      A                      A
 Frequencies --   1469.3777              1529.5683              1544.2936
 Red. masses --      1.4439                 1.0465                 1.0663
 Frc consts  --      1.8368                 1.4426                 1.4983
 IR Inten    --     28.9972                13.8749                 2.3096

                     25                     26                     27
                      A                      A                      A
 Frequencies --   1581.0363              1735.2652              2318.7921
 Red. masses --      1.1366                 6.4425                 1.0795
 Frc consts  --      1.6740                11.4298                 3.4198
 IR Inten    --     21.9119               278.2426                85.8167

                     28                     29                     30
                      A                      A                      A
 Frequencies --   2982.5102              3071.2153              3141.7036
 Red. masses --      1.0538                 1.0831                 1.0936
 Frc consts  --      5.5228                 6.0194                 6.3597
 IR Inten    --     76.9083                37.7308                 4.5285

                     31                     32                     33
                      A                      A                      A
 Frequencies --   3479.7442              3638.2983              3654.7971
 Red. masses --      1.0426                 1.1043                 1.0646
 Frc consts  --      7.4382                 8.6125                 8.3784
 IR Inten    --     22.0911                39.6210                43.1700

 - Thermochemistry -
 -------------------
 Temperature   298.150 Kelvin.  Pressure   1.00000 Atm.
 Atom     1 has atomic number  7 and mass  14.00307

 Molecular mass:    89.04768 amu.
 Principal axes and moments of inertia in atomic units:
                           1         2         3
     Eigenvalues --   382.09818 548.19464 898.34725
           X            0.99559  -0.09372   0.00401
           Y            0.09373   0.99559  -0.00305
           Z           -0.00370   0.00341   0.99999
 This molecule is an asymmetric top.
 Rotational symmetry number  1.
 Rotational temperatures (Kelvin)      0.22668     0.15800     0.09641
 Rotational constants (GHZ):           4.72324     3.29215     2.00896
    1 imaginary frequencies ignored.
 Zero-point vibrational energy     268266.9 (Joules/Mol)
                                   64.11733 (Kcal/Mol)
 Warning -- explicit consideration of   9 degrees of freedom as
           vibrations may cause significant error
 Vibrational temperatures:    203.35   276.61   347.08   418.31   424.72
          (Kelvin)            481.13   732.24   749.38   797.96   961.85
                             1052.59  1246.97  1370.00  1445.71  1528.46
                             1572.41  1622.23  1828.72  2015.50  2080.70
                             2114.10  2200.70  2221.89  2274.76  2496.66
                             3336.22  4291.16  4418.79  4520.21  5006.57
                             5234.69  5258.43

 Zero-point correction=                           0.102177 (Hartree/Particle)
 Thermal correction to Energy=                    0.109082
 Thermal correction to Enthalpy=                  0.110026
 Thermal correction to Gibbs Free Energy=         0.071965
 Sum of electronic and zero-point Energies=           -323.431582
 Sum of electronic and thermal Energies=              -323.424678
 Sum of electronic and thermal Enthalpies=            -323.423734
 Sum of electronic and thermal Free Energies=         -323.461795

                     E (Thermal)             CV                S
                      KCal/Mol        Cal/Mol-Kelvin    Cal/Mol-Kelvin
 Total                   68.450             24.581             80.106
 Electronic               0.000              0.000              0.000
 Translational            0.889              2.981             39.372
 Rotational               0.889              2.981             26.734
 Vibrational             66.672             18.619             14.000
 Vibration     1          0.615              1.912              2.786
 Vibration     2          0.634              1.851              2.206
 Vibration     3          0.658              1.777              1.794
 Vibration     4          0.687              1.691              1.470
 Vibration     5          0.689              1.683              1.444
 Vibration     6          0.716              1.607              1.239
 Vibration     7          0.864              1.230              0.636
 Vibration     8          0.876              1.204              0.608
 Vibration     9          0.910              1.130              0.535

 Optimization completed.
    -- Stationary point found.
 Normal termination of Gaussian 09 at Mon Apr 11 22:58:42 2016.
