 Gaussian 09, Revision D.01,
 Gaussian 09:  ES64L-G09RevD.01 24-Apr-2013

 -----------------------------------------------
 # opt=(calcfc,ts) freq rb3lyp/6-31g iop(1/11=1)
 -----------------------------------------------

 ------------------------
 Ala-S-opt-freq-ts2-6-31g
 ------------------------
 Symbolic Z-matrix:
 Charge =  0 Multiplicity = 1

 SCF Done:  E(RB3LYP) =  -323.492745117     A.U. after   15 cycles
 SCF Done:  E(RB3LYP) =  -323.489272187     A.U. after   14 cycles
 SCF Done:  E(RB3LYP) =  -323.486501152     A.U. after   16 cycles
 SCF Done:  E(RB3LYP) =  -323.487588040     A.U. after   16 cycles
 SCF Done:  E(RB3LYP) =  -323.495069311     A.U. after   17 cycles
 SCF Done:  E(RB3LYP) =  -323.498715235     A.U. after   14 cycles
 SCF Done:  E(RB3LYP) =  -323.500577801     A.U. after   14 cycles
 SCF Done:  E(RB3LYP) =  -323.502344922     A.U. after   16 cycles
 SCF Done:  E(RB3LYP) =  -323.504019426     A.U. after   16 cycles
 SCF Done:  E(RB3LYP) =  -323.504766208     A.U. after   16 cycles
 SCF Done:  E(RB3LYP) =  -323.505751304     A.U. after   14 cycles
 SCF Done:  E(RB3LYP) =  -323.505723457     A.U. after   14 cycles
 SCF Done:  E(RB3LYP) =  -323.506016690     A.U. after   12 cycles
 SCF Done:  E(RB3LYP) =  -323.503765235     A.U. after   15 cycles
 SCF Done:  E(RB3LYP) =  -323.505959640     A.U. after   13 cycles
 SCF Done:  E(RB3LYP) =  -323.506002510     A.U. after   14 cycles
 SCF Done:  E(RB3LYP) =  -323.506062093     A.U. after   13 cycles
 SCF Done:  E(RB3LYP) =  -323.506063348     A.U. after    9 cycles
 SCF Done:  E(RB3LYP) =  -323.506063455     A.U. after    9 cycles
 Optimization completed.
    -- Stationary point found.
 Normal termination of Gaussian 09 at Sat Apr  2 12:47:20 2016.

 ----------------------------------------------------------------------
 #N Geom=AllCheck Guess=TCheck SCRF=Check Test GenChk RB3LYP/6-31G Freq
 ----------------------------------------------------------------------

 Structure from the checkpoint file:  "Ala-S-opt-freq-ts2-6-31g.chk"
 ------------------------
 Ala-S-opt-freq-ts2-6-31g
 ------------------------
 Charge =  0 Multiplicity = 1

                         Standard orientation:
 ---------------------------------------------------------------------
 Center     Atomic      Atomic             Coordinates (Angstroms)
 Number     Number       Type             X           Y           Z
 ---------------------------------------------------------------------
      1          7           0       -1.271014   -1.263003   -0.419398
      2          1           0       -1.874973   -1.627576    0.306774
      3          6           0       -0.642150   -0.009022   -0.231626
      4          1           0        0.135118    1.123509   -1.046117
      5          6           0       -1.546214    1.002091    0.482715
      6          6           0        0.764076    0.059485    0.041688
      7          1           0       -1.922401    0.575897    1.429106
      8          1           0       -1.020754    1.930369    0.724157
      9          1           0       -2.413860    1.238358   -0.140460
     10          8           0        1.548524   -0.903227    0.564291
     11          1           0       -0.819534   -1.955492   -0.994713
     12          8           0        1.309019    1.150812   -0.499258
     13          1           0        2.498897   -0.740039    0.380114
 ---------------------------------------------------------------------

 SCF Done:  E(RB3LYP) =  -323.506063455     A.U. after    1 cycles

 The electronic state is 1-A.
 Alpha  occ. eigenvalues --  -19.21851 -19.16080 -14.30968 -10.32676 -10.21028
 Alpha  occ. eigenvalues --  -10.18000  -1.12860  -1.03676  -0.88735  -0.74594
 Alpha  occ. eigenvalues --   -0.68537  -0.61266  -0.52375  -0.50139  -0.49461
 Alpha  occ. eigenvalues --   -0.45447  -0.42386  -0.40250  -0.38215  -0.37216
 Alpha  occ. eigenvalues --   -0.36514  -0.32351  -0.25917  -0.17670
 Alpha virt. eigenvalues --   -0.03206   0.04376   0.08746   0.09197   0.13930
 Alpha virt. eigenvalues --    0.16295   0.17430   0.17742   0.19693   0.25008
 Alpha virt. eigenvalues --    0.26757   0.35800   0.41879   0.52262   0.55963

 Mulliken charges:
               1
     1  N   -0.738747
     2  H    0.288149
     3  C    0.001757
     4  H    0.309177
     5  C   -0.413147
     6  C    0.501820
     7  H    0.126084
     8  H    0.148253
     9  H    0.158590
    10  O   -0.540923
    11  H    0.296557
    12  O   -0.537657
    13  H    0.400086
 Sum of Mulliken charges =   0.00000

 Dipole moment (field-independent basis, Debye):
    X=              0.5138    Y=             -1.6070    Z=              0.6420  Tot=              1.8052
 Quadrupole moment (field-independent basis, Debye-Ang):
   XX=            -32.3092   YY=            -36.2970   ZZ=            -37.7019
   XY=             -3.2331   XZ=             -1.3687   YZ=              1.7509

  Exact polarizability:  62.220   2.757  49.173  -0.294  -4.018  34.781
 Approx polarizability:  94.340  12.502  77.058   3.325 -12.610  51.430

 ******    1 imaginary frequencies (negative Signs) ******

                      1                      2                      3
                      A                      A                      A
 Frequencies --  -2159.3561               145.8973               234.8087
 Red. masses --      1.1160                 3.5618                 2.4690
 Frc consts  --      3.0659                 0.0447                 0.0802
 IR Inten    --    421.9141                 8.4035                 7.6797

                      4                      5                      6
                      A                      A                      A
 Frequencies --    270.1812               301.6498               306.1617
 Red. masses --      1.3971                 2.1819                 1.1549
 Frc consts  --      0.0601                 0.1170                 0.0638
 IR Inten    --      5.5407                25.9701                62.5032

                      7                      8                      9
                      A                      A                      A
 Frequencies --    378.9026               406.5376               529.1062
 Red. masses --      2.2901                 1.4136                 2.8533
 Frc consts  --      0.1937                 0.1376                 0.4706
 IR Inten    --      5.6716               293.8404                57.2788

                     10                     11                     12
                      A                      A                      A
 Frequencies --    576.0695               612.7141               650.0347
 Red. masses --      1.4652                 6.1882                 4.6976
 Frc consts  --      0.2865                 1.3688                 1.1695
 IR Inten    --    126.8339                10.1580                35.5961

                     13                     14                     15
                      A                      A                      A
 Frequencies --    757.7156               986.5894              1011.2391
 Red. masses --      4.7352                 1.9036                 1.3591
 Frc consts  --      1.6018                 1.0917                 0.8188
 IR Inten    --      4.1954                66.7421                11.1408

                     16                     17                     18
                      A                      A                      A
 Frequencies --   1069.3443              1111.6367              1135.7942
 Red. masses --      1.4532                 1.3754                 1.5496
 Frc consts  --      0.9791                 1.0014                 1.1778
 IR Inten    --     19.2672                18.2541               276.9086

                     19                     20                     21
                      A                      A                      A
 Frequencies --   1271.8792              1305.7410              1382.4763
 Red. masses --      2.4505                 2.8729                 3.5419
 Frc consts  --      2.3356                 2.8860                 3.9884
 IR Inten    --     22.3025                86.5306               224.0529

                     22                     23                     24
                      A                      A                      A
 Frequencies --   1451.7716              1524.2566              1536.9473
 Red. masses --      1.2286                 1.0758                 1.3433
 Frc consts  --      1.5256                 1.4726                 1.8696
 IR Inten    --      9.2839                16.8020                39.1323

                     25                     26                     27
                      A                      A                      A
 Frequencies --   1583.2684              1698.4762              1841.5159
 Red. masses --      1.9800                 1.1065                 1.1975
 Frc consts  --      2.9243                 1.8807                 2.3926
 IR Inten    --     59.9799                46.9667                30.7525

                     28                     29                     30
                      A                      A                      A
 Frequencies --   2981.9919              3096.2051              3148.2179
 Red. masses --      1.0561                 1.0746                 1.1010
 Frc consts  --      5.5329                 6.0694                 6.4292
 IR Inten    --     82.3602                24.6080                16.8569

                     31                     32                     33
                      A                      A                      A
 Frequencies --   3551.6870              3596.6180              3705.5028
 Red. masses --      1.0490                 1.0648                 1.0952
 Frc consts  --      7.7963                 8.1153                 8.8604
 IR Inten    --      1.0697                51.5398                 9.2294

 - Thermochemistry -
 -------------------
 Temperature   298.150 Kelvin.  Pressure   1.00000 Atm.
 Atom     1 has atomic number  7 and mass  14.00307

 Molecular mass:    89.04768 amu.
 Principal axes and moments of inertia in atomic units:
                           1         2         3
     Eigenvalues --   365.72300 606.73696 830.73461
           X            0.99883  -0.04526  -0.01710
           Y            0.04580   0.99841   0.03295
           Z            0.01558  -0.03369   0.99931
 This molecule is an asymmetric top.
 Rotational symmetry number  1.
 Rotational temperatures (Kelvin)      0.23683     0.14275     0.10426
 Rotational constants (GHZ):           4.93472     2.97450     2.17246
    1 imaginary frequencies ignored.
 Zero-point vibrational energy     264141.1 (Joules/Mol)
                                   63.13123 (Kcal/Mol)
 Warning -- explicit consideration of  10 degrees of freedom as
           vibrations may cause significant error
 Vibrational temperatures:    209.91   337.84   388.73   434.01   440.50
          (Kelvin)            545.16   584.92   761.26   828.83   881.56
                              935.25  1090.18  1419.48  1454.95  1538.55
                             1599.40  1634.15  1829.95  1878.67  1989.07
                             2088.77  2193.06  2211.32  2277.97  2443.73
                             2649.53  4290.42  4454.74  4529.58  5110.08
                             5174.72  5331.39

 Zero-point correction=                           0.100606 (Hartree/Particle)
 Thermal correction to Energy=                    0.107477
 Thermal correction to Enthalpy=                  0.108421
 Thermal correction to Gibbs Free Energy=         0.070578
 Sum of electronic and zero-point Energies=           -323.405457
 Sum of electronic and thermal Energies=              -323.398587
 Sum of electronic and thermal Enthalpies=            -323.397642
 Sum of electronic and thermal Free Energies=         -323.435485

                     E (Thermal)             CV                S
                      KCal/Mol        Cal/Mol-Kelvin    Cal/Mol-Kelvin
 Total                   67.443             24.956             79.647
 Electronic               0.000              0.000              0.000
 Translational            0.889              2.981             39.372
 Rotational               0.889              2.981             26.713
 Vibrational             65.665             18.994             13.561
 Vibration     1          0.617              1.907              2.725
 Vibration     2          0.655              1.788              1.842
 Vibration     3          0.674              1.728              1.595
 Vibration     4          0.694              1.671              1.408
 Vibration     5          0.697              1.662              1.383
 Vibration     6          0.749              1.515              1.044
 Vibration     7          0.771              1.456              0.939
 Vibration     8          0.884              1.186              0.589
 Vibration     9          0.932              1.083              0.493
 Vibration    10          0.972              1.005              0.428

 Optimization completed.
    -- Stationary point found.
 Normal termination of Gaussian 09 at Sat Apr  2 12:48:19 2016.
