 Gaussian 09, Revision D.01,
 Gaussian 09:  ES64L-G09RevD.01 24-Apr-2013

 -------------------------------------------
 # opt b3lyp/6-311++g(d,p) geom=connectivity
 -------------------------------------------

 -----------------------
 Ser-R-opt-6-311++g(d,p)
 -----------------------
 Symbolic Z-matrix:
 Charge =  0 Multiplicity = 1

 SCF Done:  E(RB3LYP) =  -399.087847317     A.U. after   13 cycles
 SCF Done:  E(RB3LYP) =  -399.091721901     A.U. after   11 cycles
 SCF Done:  E(RB3LYP) =  -399.092034808     A.U. after   10 cycles
 SCF Done:  E(RB3LYP) =  -399.092002335     A.U. after   10 cycles
 SCF Done:  E(RB3LYP) =  -399.092002589     A.U. after   10 cycles
 SCF Done:  E(RB3LYP) =  -399.092091835     A.U. after   10 cycles
 SCF Done:  E(RB3LYP) =  -399.092094084     A.U. after    8 cycles
 SCF Done:  E(RB3LYP) =  -399.092094553     A.U. after    7 cycles
 SCF Done:  E(RB3LYP) =  -399.092094811     A.U. after    8 cycles
 SCF Done:  E(RB3LYP) =  -399.092094946     A.U. after    8 cycles
 SCF Done:  E(RB3LYP) =  -399.092094986     A.U. after    7 cycles
 Optimization completed.
    -- Stationary point found.

                         Standard orientation:
 ---------------------------------------------------------------------
 Center     Atomic      Atomic             Coordinates (Angstroms)
 Number     Number       Type             X           Y           Z
 ---------------------------------------------------------------------
      1          6           0        0.206215    0.270059    0.289550
      2          1           0        0.291241    0.387024    1.384985
      3          6           0       -1.180191   -0.305910    0.047155
      4          8           0       -1.434425   -1.453262   -0.218576
      5          8           0       -2.139809    0.635782    0.210285
      6          1           0       -2.994720    0.209754    0.046526
      7          6           0        1.280813   -0.718263   -0.144868
      8          1           0        1.119510   -1.682855    0.344534
      9          1           0        1.229341   -0.853818   -1.230496
     10          8           0        2.533260   -0.143443    0.242524
     11          1           0        3.246724   -0.669348   -0.129248
     12          7           0        0.368895    1.530648   -0.436120
     13          1           0       -0.295075    2.225531   -0.113555
     14          1           0        1.307483    1.881245   -0.274795
 ---------------------------------------------------------------------

 The electronic state is 1-A.
 Alpha  occ. eigenvalues --  -19.18653 -19.13871 -19.13120 -14.30428 -10.32075
 Alpha  occ. eigenvalues --  -10.22853 -10.22765  -1.12884  -1.04098  -1.03857
 Alpha  occ. eigenvalues --   -0.90313  -0.75774  -0.68416  -0.59545  -0.54993
 Alpha  occ. eigenvalues --   -0.51827  -0.50640  -0.49035  -0.47211  -0.45285
 Alpha  occ. eigenvalues --   -0.41659  -0.41434  -0.40550  -0.35714  -0.34420
 Alpha  occ. eigenvalues --   -0.30365  -0.29377  -0.25567
 Alpha virt. eigenvalues --   -0.02447  -0.01144  -0.00864   0.01301   0.01765
 Alpha virt. eigenvalues --    0.02848   0.04466   0.05313   0.07731   0.07907
 Alpha virt. eigenvalues --    0.08273   0.08993   0.09686   0.10641   0.11049

 Mulliken charges:
               1
     1  C   -0.071889
     2  H    0.210583
     3  C    0.002358
     4  O   -0.290638
     5  O   -0.202532
     6  H    0.295528
     7  C   -0.449464
     8  H    0.175357
     9  H    0.195499
    10  O   -0.307181
    11  H    0.258746
    12  N   -0.314255
    13  H    0.244641
    14  H    0.253247
 Sum of Mulliken charges =   0.00000

 Dipole moment (field-independent basis, Debye):
    X=              0.3349    Y=              0.4595    Z=              0.5936  Tot=              0.8220
 Quadrupole moment (field-independent basis, Debye-Ang):
   XX=            -33.5364   YY=            -43.7393   ZZ=            -44.3038
   XY=             -5.4713   XZ=             -2.8598   YZ=              1.1590

 1\1\GINC-BREEZE\FOpt\RB3LYP\6-311++G(d,p)\C3H7N1O3\SKY\28-Mar-2016\0\\
 # opt b3lyp/6-311++g(d,p) geom=connectivity\\Ser-R-opt-6-311++g(d,p)\\
 0,1\C,0.2080742297,0.2752820595,0.2768576943\H,0.2964274234,0.41343011
 5,1.3695587021\C,-1.181283198,-0.2996470675,0.0493497109\O,-1.44086107
 46,-1.450952213,-0.1930964444\O,-2.1366453099,0.6490056158,0.196330069
 3\H,-2.9937015309,0.223352701,0.043149209\C,1.2775187461,-0.7258027855
 ,-0.1407292996\H,1.1135799328,-1.6799067634,0.3679745862\H,1.222669868
 2,-0.8824816415,-1.2233442361\O,2.533292561,-0.148618972,0.2321065587\

 Normal termination of Gaussian 09 at Mon Mar 28 03:32:32 2016.
