 Gaussian 09, Revision D.01,
 Gaussian 09:  ES64L-G09RevD.01 24-Apr-2013

 -----------------------------------------------
 # opt=(calcfc,ts) freq rb3lyp/6-31g iop(1/11=1)
 -----------------------------------------------

 -----------------------
 Ala-S-opt-freq-p2-6-31g
 -----------------------
 Symbolic Z-matrix:
 Charge =  0 Multiplicity = 1

 SCF Done:  E(RB3LYP) =  -323.430925404     A.U. after   17 cycles
 SCF Done:  E(RB3LYP) =  -323.447798272     A.U. after   16 cycles
 SCF Done:  E(RB3LYP) =  -323.479459173     A.U. after   15 cycles
 SCF Done:  E(RB3LYP) =  -323.517649073     A.U. after   13 cycles
 SCF Done:  E(RB3LYP) =  -323.544713446     A.U. after   13 cycles
 SCF Done:  E(RB3LYP) =  -323.560145160     A.U. after   13 cycles
 SCF Done:  E(RB3LYP) =  -323.565460177     A.U. after   13 cycles
 SCF Done:  E(RB3LYP) =  -323.566743430     A.U. after   13 cycles
 SCF Done:  E(RB3LYP) =  -323.566238371     A.U. after   13 cycles
 SCF Done:  E(RB3LYP) =  -323.565652732     A.U. after   13 cycles
 SCF Done:  E(RB3LYP) =  -323.586786607     A.U. after   13 cycles
 SCF Done:  E(RB3LYP) =  -323.586601762     A.U. after   14 cycles
 SCF Done:  E(RB3LYP) =  -323.586778130     A.U. after   12 cycles
 SCF Done:  E(RB3LYP) =  -323.586557295     A.U. after   12 cycles
 SCF Done:  E(RB3LYP) =  -323.586776857     A.U. after   12 cycles
 SCF Done:  E(RB3LYP) =  -323.586719601     A.U. after   13 cycles
 SCF Done:  E(RB3LYP) =  -323.586785636     A.U. after   12 cycles
 SCF Done:  E(RB3LYP) =  -323.586786114     A.U. after    8 cycles
 SCF Done:  E(RB3LYP) =  -323.586786119     A.U. after    8 cycles
 Optimization completed.
    -- Stationary point found.
 Normal termination of Gaussian 09 at Sun Apr 10 10:17:26 2016.

 ----------------------------------------------------------------------
 #N Geom=AllCheck Guess=TCheck SCRF=Check Test GenChk RB3LYP/6-31G Freq
 ----------------------------------------------------------------------

 Structure from the checkpoint file:  "Ala-S-opt-freq-p2-6-31g.chk"
 -----------------------
 Ala-S-opt-freq-p2-6-31g
 -----------------------
 Charge =  0 Multiplicity = 1

                         Standard orientation:
 ---------------------------------------------------------------------
 Center     Atomic      Atomic             Coordinates (Angstroms)
 Number     Number       Type             X           Y           Z
 ---------------------------------------------------------------------
      1          7           0        1.056095   -1.341893    0.000054
      2          1           0        1.569395   -1.638645   -0.833586
      3          6           0        0.636780    0.087274    0.000129
      4          1           0       -2.435438    0.957928    0.000986
      5          6           0        1.611651    1.208953   -0.000020
      6          6           0       -0.732043    0.062076    0.000074
      7          1           0        1.062986    2.155953    0.001068
      8          1           0        2.269679    1.212288    0.884882
      9          1           0        2.268093    1.213612   -0.886114
     10          8           0       -1.344415   -1.121440   -0.000104
     11          1           0        1.569957   -1.639242    0.833087
     12          8           0       -1.490233    1.209029   -0.000125
     13          1           0       -0.118491   -1.719171    0.000038
 ---------------------------------------------------------------------

 SCF Done:  E(RB3LYP) =  -323.586786119     A.U. after    1 cycles

 The electronic state is 1-A.
 Alpha  occ. eigenvalues --  -19.16195 -19.10097 -14.39860 -10.27622 -10.18739
 Alpha  occ. eigenvalues --  -10.17596  -1.07061  -0.99235  -0.93174  -0.75382
 Alpha  occ. eigenvalues --   -0.67255  -0.58892  -0.54968  -0.51285  -0.46589
 Alpha  occ. eigenvalues --   -0.45657  -0.41333  -0.39064  -0.38788  -0.37962
 Alpha  occ. eigenvalues --   -0.34283  -0.28200  -0.26432  -0.17691
 Alpha virt. eigenvalues --    0.04462   0.06914   0.08291   0.11936   0.13151
 Alpha virt. eigenvalues --    0.15803   0.17371   0.18372   0.21471   0.24947
 Alpha virt. eigenvalues --    0.27019   0.38943   0.42855   0.54840   0.55811

 Mulliken charges:
               1
     1  N   -0.838960
     2  H    0.339101
     3  C    0.148143
     4  H    0.385501
     5  C   -0.450076
     6  C    0.465126
     7  H    0.177399
     8  H    0.124555
     9  H    0.124590
    10  O   -0.633341
    11  H    0.339097
    12  O   -0.600880
    13  H    0.419745
 Sum of Mulliken charges =   0.00000

 Dipole moment (field-independent basis, Debye):
    X=              3.2777    Y=             -1.5162    Z=              0.0019  Tot=              3.6114
 Quadrupole moment (field-independent basis, Debye-Ang):
   XX=            -31.0632   YY=            -35.8771   ZZ=            -35.9935
   XY=             -7.8694   XZ=             -0.0065   YZ=              0.0027

  Exact polarizability:  63.130  -1.045  47.804  -0.005  -0.003  27.687
 Approx polarizability:  95.717   0.517  65.889  -0.005  -0.006  35.974

 ******    1 imaginary frequencies (negative Signs) ******

                      1                      2                      3
                      A                      A                      A
 Frequencies --  -1004.5857               167.2048               178.3699
 Red. masses --      1.1369                 1.7784                 1.6163
 Frc consts  --      0.6760                 0.0293                 0.0303
 IR Inten    --    944.5273                 2.0698                 2.7817

                      4                      5                      6
                      A                      A                      A
 Frequencies --    243.2415               254.9024               428.1255
 Red. masses --      3.1774                 3.0361                 1.0728
 Frc consts  --      0.1108                 0.1162                 0.1159
 IR Inten    --     18.5329                 3.5232               170.2118

                      7                      8                      9
                      A                      A                      A
 Frequencies --    473.4475               473.6129               612.7308
 Red. masses --      1.2376                 2.4864                 5.6753
 Frc consts  --      0.1634                 0.3286                 1.2554
 IR Inten    --      8.2403                35.9204                 6.9543

                     10                     11                     12
                      A                      A                      A
 Frequencies --    680.4202               687.8334               757.2296
 Red. masses --      9.5736                 6.0697                 5.6897
 Frc consts  --      2.6114                 1.6919                 1.9222
 IR Inten    --     27.7156                 1.2789                10.0213

                     13                     14                     15
                      A                      A                      A
 Frequencies --    963.1223              1079.3525              1088.1437
 Red. masses --      2.3380                 1.2198                 1.4797
 Frc consts  --      1.2778                 0.8373                 1.0323
 IR Inten    --      7.9180                 1.5956               136.8005

                     16                     17                     18
                      A                      A                      A
 Frequencies --   1130.0710              1167.7920              1225.7658
 Red. masses --      1.5347                 1.3149                 3.2350
 Frc consts  --      1.1547                 1.0565                 2.8638
 IR Inten    --    372.8595                 1.6875                10.7958

                     19                     20                     21
                      A                      A                      A
 Frequencies --   1329.0409              1440.3859              1470.4366
 Red. masses --      2.1670                 4.9148                 1.3294
 Frc consts  --      2.2552                 6.0078                 1.6936
 IR Inten    --     41.3398               136.2127                 7.1513

                     22                     23                     24
                      A                      A                      A
 Frequencies --   1525.8494              1544.6720              1583.7969
 Red. masses --      1.0462                 1.0691                 1.0510
 Frc consts  --      1.4352                 1.5030                 1.5532
 IR Inten    --      8.3163                25.3668                69.5993

                     25                     26                     27
                      A                      A                      A
 Frequencies --   1681.2540              1749.3029              2018.1179
 Red. masses --      1.2696                 2.6438                 1.1074
 Frc consts  --      2.1144                 4.7666                 2.6573
 IR Inten    --     14.8732               169.5830               154.4995

                     28                     29                     30
                      A                      A                      A
 Frequencies --   2980.5282              3010.6666              3130.3428
 Red. masses --      1.0414                 1.0987                 1.0900
 Frc consts  --      5.4509                 5.8677                 6.2929
 IR Inten    --    104.8674                65.2836                 7.7819

                     31                     32                     33
                      A                      A                      A
 Frequencies --   3418.4408              3480.9456              3662.5062
 Red. masses --      1.0446                 1.0952                 1.0645
 Frc consts  --      7.1920                 7.8189                 8.4126
 IR Inten    --      4.3917                 4.6421                60.0980

 - Thermochemistry -
 -------------------
 Temperature   298.150 Kelvin.  Pressure   1.00000 Atm.
 Atom     1 has atomic number  7 and mass  14.00307

 Molecular mass:    89.04768 amu.
 Principal axes and moments of inertia in atomic units:
                           1         2         3
     Eigenvalues --   379.69312 526.93050 885.33825
           X            0.99991   0.01352  -0.00002
           Y           -0.01352   0.99991   0.00001
           Z            0.00002  -0.00001   1.00000
 This molecule is an asymmetric top.
 Rotational symmetry number  1.
 Rotational temperatures (Kelvin)      0.22812     0.16437     0.09783
 Rotational constants (GHZ):           4.75316     3.42501     2.03848
    1 imaginary frequencies ignored.
 Zero-point vibrational energy     272973.8 (Joules/Mol)
                                   65.24230 (Kcal/Mol)
 Warning -- explicit consideration of   8 degrees of freedom as
           vibrations may cause significant error
 Vibrational temperatures:    240.57   256.63   349.97   366.75   615.98
          (Kelvin)            681.18   681.42   881.58   978.97   989.64
                             1089.48  1385.72  1552.95  1565.59  1625.92
                             1680.19  1763.60  1912.19  2072.39  2115.63
                             2195.35  2222.44  2278.73  2418.95  2516.85
                             2903.62  4288.31  4331.67  4503.86  4918.37
                             5008.30  5269.52

 Zero-point correction=                           0.103970 (Hartree/Particle)
 Thermal correction to Energy=                    0.110433
 Thermal correction to Enthalpy=                  0.111377
 Thermal correction to Gibbs Free Energy=         0.074102
 Sum of electronic and zero-point Energies=           -323.482816
 Sum of electronic and thermal Energies=              -323.476353
 Sum of electronic and thermal Enthalpies=            -323.475409
 Sum of electronic and thermal Free Energies=         -323.512684

                     E (Thermal)             CV                S
                      KCal/Mol        Cal/Mol-Kelvin    Cal/Mol-Kelvin
 Total                   69.298             22.975             78.452
 Electronic               0.000              0.000              0.000
 Translational            0.889              2.981             39.372
 Rotational               0.889              2.981             26.674
 Vibrational             67.520             17.013             12.405
 Vibration     1          0.624              1.883              2.467
 Vibration     2          0.629              1.869              2.345
 Vibration     3          0.659              1.774              1.779
 Vibration     4          0.665              1.755              1.696
 Vibration     5          0.790              1.409              0.865
 Vibration     6          0.830              1.309              0.728
 Vibration     7          0.830              1.309              0.728
 Vibration     8          0.972              1.005              0.428

 Optimization completed.
    -- Stationary point found.
 Normal termination of Gaussian 09 at Sun Apr 10 10:18:31 2016.
