 Gaussian 09, Revision D.01,
 Gaussian 09:  ES64L-G09RevD.01 24-Apr-2013

 ------------------------------------------------
 #p opt=(calcfc,ts) freq rb3lyp/6-31g iop(1/11=1)
 ------------------------------------------------

 -------------------------
 Ala-S-opt-freq-tsb1-6-31g
 -------------------------
 Symbolic Z-matrix:
 Charge =  0 Multiplicity = 1

 SCF Done:  E(RB3LYP) =  -323.350881464     A.U. after   17 cycles
 SCF Done:  E(RB3LYP) =  -323.380166117     A.U. after   15 cycles
 SCF Done:  E(RB3LYP) =  -323.403714764     A.U. after   15 cycles
 SCF Done:  E(RB3LYP) =  -323.423740660     A.U. after   14 cycles
 SCF Done:  E(RB3LYP) =  -323.438591399     A.U. after   14 cycles
 SCF Done:  E(RB3LYP) =  -323.451734800     A.U. after   15 cycles
 SCF Done:  E(RB3LYP) =  -323.465896358     A.U. after   15 cycles
 SCF Done:  E(RB3LYP) =  -323.477449866     A.U. after   14 cycles
 SCF Done:  E(RB3LYP) =  -323.484510383     A.U. after   14 cycles
 SCF Done:  E(RB3LYP) =  -323.488784393     A.U. after   15 cycles
 SCF Done:  E(RB3LYP) =  -323.499677897     A.U. after   13 cycles
 SCF Done:  E(RB3LYP) =  -323.499368657     A.U. after   15 cycles
 SCF Done:  E(RB3LYP) =  -323.500062716     A.U. after   14 cycles
 SCF Done:  E(RB3LYP) =  -323.500260543     A.U. after   14 cycles
 SCF Done:  E(RB3LYP) =  -323.500290196     A.U. after   12 cycles
 SCF Done:  E(RB3LYP) =  -323.500236389     A.U. after   13 cycles
 SCF Done:  E(RB3LYP) =  -323.500299281     A.U. after   12 cycles
 SCF Done:  E(RB3LYP) =  -323.500300624     A.U. after   10 cycles
 SCF Done:  E(RB3LYP) =  -323.500300789     A.U. after    9 cycles
 Optimization completed.
    -- Stationary point found.
 Normal termination of Gaussian 09 at Tue Apr 12 20:59:08 2016.

 ----------------------------------------------------------------------
 #P Geom=AllCheck Guess=TCheck SCRF=Check Test GenChk RB3LYP/6-31G Freq
 ----------------------------------------------------------------------

 Structure from the checkpoint file:  "Ala-S-opt-freq-tsb1-6-31g.chk"
 -------------------------
 Ala-S-opt-freq-tsb1-6-31g
 -------------------------
 Charge =  0 Multiplicity = 1

                         Standard orientation:
 ---------------------------------------------------------------------
 Center     Atomic      Atomic             Coordinates (Angstroms)
 Number     Number       Type             X           Y           Z
 ---------------------------------------------------------------------
      1          7           0       -1.296560   -1.146049   -0.528572
      2          1           0       -1.929033   -1.746463   -0.021911
      3          6           0       -0.655507   -0.078037    0.218159
      4          1           0        0.207242   -1.179802    0.991619
      5          6           0       -1.426509    1.217456    0.370611
      6          6           0        0.765791   -0.018454   -0.002996
      7          1           0       -2.343672    1.039326    0.945052
      8          1           0       -0.847203    1.984273    0.897484
      9          1           0       -1.729211    1.638054   -0.603635
     10          8           0        1.393477   -1.063234    0.501066
     11          1           0       -1.620350   -0.918825   -1.464350
     12          8           0        1.457819    1.008762   -0.523142
     13          1           0        2.425138    0.915769   -0.382296
 ---------------------------------------------------------------------

 SCF Done:  E(RB3LYP) =  -323.500300789     A.U. after    1 cycles

 The electronic state is 1-A.
 Alpha  occ. eigenvalues --  -19.22451 -19.16910 -14.30863 -10.33782 -10.20041
 Alpha  occ. eigenvalues --  -10.16531  -1.13807  -1.04848  -0.87835  -0.74451
 Alpha  occ. eigenvalues --   -0.67806  -0.62357  -0.50767  -0.49986  -0.48803
 Alpha  occ. eigenvalues --   -0.46002  -0.41928  -0.39719  -0.39410  -0.38288
 Alpha  occ. eigenvalues --   -0.35331  -0.32671  -0.22688  -0.19955
 Alpha virt. eigenvalues --   -0.03466   0.04037   0.07340   0.10107   0.14440
 Alpha virt. eigenvalues --    0.16497   0.16983   0.18388   0.20583   0.24317
 Alpha virt. eigenvalues --    0.29536   0.33388   0.38543   0.53406   0.54670

 Mulliken charges:
               1
     1  N   -0.699722
     2  H    0.295756
     3  C   -0.080481
     4  H    0.325607
     5  C   -0.422892
     6  C    0.545837
     7  H    0.134636
     8  H    0.131978
     9  H    0.125204
    10  O   -0.505528
    11  H    0.281345
    12  O   -0.534577
    13  H    0.402838
 Sum of Mulliken charges =   0.00000

 Dipole moment (field-independent basis, Debye):
    X=             -0.1935    Y=              1.1061    Z=             -0.2535  Tot=              1.1511
 Quadrupole moment (field-independent basis, Debye-Ang):
   XX=            -29.2017   YY=            -39.5859   ZZ=            -36.2791
   XY=              6.1246   XZ=             -0.1741   YZ=              0.3731

  Exact polarizability:  59.562   1.533  48.507   0.790  -4.702  35.894
 Approx polarizability:  87.024  -1.057  74.302   0.990 -13.978  51.956

 ******    1 imaginary frequencies (negative Signs) ******

                      1                      2                      3
                      A                      A                      A
 Frequencies --  -2098.0114               138.0327               184.7235
 Red. masses --      1.1137                 3.6361                 1.1424
 Frc consts  --      2.8884                 0.0408                 0.0230
 IR Inten    --    600.4277                 9.7129                 0.6782

                      4                      5                      6
                      A                      A                      A
 Frequencies --    252.1118               291.3365               348.2596
 Red. masses --      3.4313                 3.1494                 1.8651
 Frc consts  --      0.1285                 0.1575                 0.1333
 IR Inten    --      2.9666                19.4613                 6.5639

                      7                      8                      9
                      A                      A                      A
 Frequencies --    411.5095               519.2903               534.5484
 Red. masses --      1.2166                 2.7516                 1.6857
 Frc consts  --      0.1214                 0.4372                 0.2838
 IR Inten    --     56.0607                 9.6531               178.3173

                     10                     11                     12
                      A                      A                      A
 Frequencies --    612.6911               618.5157               690.2627
 Red. masses --      2.3773                 1.5834                 4.9077
 Frc consts  --      0.5258                 0.3569                 1.3777
 IR Inten    --     30.2188               218.1866                24.0509

                     13                     14                     15
                      A                      A                      A
 Frequencies --    757.6737               972.0984              1005.3609
 Red. masses --      4.6628                 1.3073                 1.6229
 Frc consts  --      1.5771                 0.7279                 0.9665
 IR Inten    --     19.8635                47.6639                23.1851

                     16                     17                     18
                      A                      A                      A
 Frequencies --   1068.9600              1125.1149              1200.8962
 Red. masses --      1.3458                 1.9384                 2.0322
 Frc consts  --      0.9061                 1.4457                 1.7268
 IR Inten    --     13.6665               355.9928                 7.1998

                     19                     20                     21
                      A                      A                      A
 Frequencies --   1219.5925              1251.0625              1413.0381
 Red. masses --      2.3328                 2.1206                 4.2446
 Frc consts  --      2.0444                 1.9555                 4.9934
 IR Inten    --     30.1773                 4.7388               235.2514

                     22                     23                     24
                      A                      A                      A
 Frequencies --   1455.6531              1522.8261              1528.4967
 Red. masses --      1.2306                 1.2699                 1.0627
 Frc consts  --      1.5363                 1.7351                 1.4628
 IR Inten    --      1.5879                34.0949                15.8031

                     25                     26                     27
                      A                      A                      A
 Frequencies --   1557.2387              1722.7464              1890.5315
 Red. masses --      2.1006                 1.1259                 1.1809
 Frc consts  --      3.0013                 1.9687                 2.4867
 IR Inten    --    115.8491                20.4443                15.4556

                     28                     29                     30
                      A                      A                      A
 Frequencies --   2989.4889              3075.1243              3115.8764
 Red. masses --      1.0506                 1.0808                 1.0992
 Frc consts  --      5.5322                 6.0217                 6.2875
 IR Inten    --     63.5875                32.2374                28.6642

                     31                     32                     33
                      A                      A                      A
 Frequencies --   3507.0971              3596.3012              3663.9307
 Red. masses --      1.0506                 1.0646                 1.0918
 Frc consts  --      7.6135                 8.1126                 8.6354
 IR Inten    --      8.9983                53.9083                 5.8439

 - Thermochemistry -
 -------------------
 Temperature   298.150 Kelvin.  Pressure   1.00000 Atm.
 Atom     1 has atomic number  7 and mass  14.00307

 Molecular mass:    89.04768 amu.
 Principal axes and moments of inertia in atomic units:
                           1         2         3
     Eigenvalues --   372.87442 593.98309 825.00674
           X            0.99999  -0.00362  -0.00211
           Y            0.00367   0.99968   0.02513
           Z            0.00202  -0.02514   0.99968
 This molecule is an asymmetric top.
 Rotational symmetry number  1.
 Rotational temperatures (Kelvin)      0.23229     0.14582     0.10499
 Rotational constants (GHZ):           4.84008     3.03837     2.18755
    1 imaginary frequencies ignored.
 Zero-point vibrational energy     264616.3 (Joules/Mol)
                                   63.24481 (Kcal/Mol)
 Warning -- explicit consideration of  10 degrees of freedom as
           vibrations may cause significant error
 Vibrational temperatures:    198.60   265.78   362.73   419.17   501.07
          (Kelvin)            592.07   747.14   769.09   881.52   889.91
                              993.13  1090.12  1398.63  1446.49  1537.99
                             1618.79  1727.82  1754.72  1800.00  2033.04
                             2094.36  2191.00  2199.16  2240.52  2478.64
                             2720.05  4301.20  4424.41  4483.05  5045.92
                             5174.27  5271.57

 Zero-point correction=                           0.100787 (Hartree/Particle)
 Thermal correction to Energy=                    0.107569
 Thermal correction to Enthalpy=                  0.108513
 Thermal correction to Gibbs Free Energy=         0.070708
 Sum of electronic and zero-point Energies=           -323.399514
 Sum of electronic and thermal Energies=              -323.392732
 Sum of electronic and thermal Enthalpies=            -323.391788
 Sum of electronic and thermal Free Energies=         -323.429593

                     E (Thermal)             CV                S
                      KCal/Mol        Cal/Mol-Kelvin    Cal/Mol-Kelvin
 Total                   67.500             24.517             79.568
 Electronic               0.000              0.000              0.000
 Translational            0.889              2.981             39.372
 Rotational               0.889              2.981             26.705
 Vibrational             65.723             18.555             13.491
 Vibration     1          0.614              1.915              2.831
 Vibration     2          0.631              1.861              2.280
 Vibration     3          0.664              1.759              1.716
 Vibration     4          0.687              1.690              1.466
 Vibration     5          0.726              1.579              1.174
 Vibration     6          0.775              1.445              0.921
 Vibration     7          0.874              1.207              0.612
 Vibration     8          0.890              1.174              0.577
 Vibration     9          0.972              1.005              0.428
 Vibration    10          0.978              0.993              0.419

 Optimization completed.
    -- Stationary point found.
 Normal termination of Gaussian 09 at Tue Apr 12 21:02:22 2016.
