 Gaussian 09, Revision D.01,
 Gaussian 09:  ES64L-G09RevD.01 24-Apr-2013

 ------------------------------------------------
 #p opt=(calcfc,ts) freq rb3lyp/6-31g iop(1/11=1)
 ------------------------------------------------

 -------------------------
 Ala-S-opt-freq-tsa3-6-31g
 -------------------------
 Symbolic Z-matrix:
 Charge =  0 Multiplicity = 1

 SCF Done:  E(RB3LYP) =  -323.430205747     A.U. after   15 cycles
 SCF Done:  E(RB3LYP) =  -323.444638359     A.U. after   15 cycles
 SCF Done:  E(RB3LYP) =  -323.476228100     A.U. after   14 cycles
 SCF Done:  E(RB3LYP) =  -323.492920150     A.U. after   15 cycles
 SCF Done:  E(RB3LYP) =  -323.501629310     A.U. after   15 cycles
 SCF Done:  E(RB3LYP) =  -323.506767016     A.U. after   16 cycles
 SCF Done:  E(RB3LYP) =  -323.511602248     A.U. after   16 cycles
 SCF Done:  E(RB3LYP) =  -323.512796176     A.U. after   15 cycles
 SCF Done:  E(RB3LYP) =  -323.511200623     A.U. after   15 cycles
 SCF Done:  E(RB3LYP) =  -323.510781774     A.U. after   15 cycles
 SCF Done:  E(RB3LYP) =  -323.513206267     A.U. after   14 cycles
 SCF Done:  E(RB3LYP) =  -323.512569327     A.U. after   15 cycles
 SCF Done:  E(RB3LYP) =  -323.513070940     A.U. after   14 cycles
 SCF Done:  E(RB3LYP) =  -323.512930701     A.U. after   15 cycles
 SCF Done:  E(RB3LYP) =  -323.513192844     A.U. after   14 cycles
 SCF Done:  E(RB3LYP) =  -323.513192886     A.U. after   14 cycles
 SCF Done:  E(RB3LYP) =  -323.513218812     A.U. after   12 cycles
 SCF Done:  E(RB3LYP) =  -323.513219032     A.U. after    9 cycles
 SCF Done:  E(RB3LYP) =  -323.513219092     A.U. after    8 cycles
 Optimization completed.
    -- Stationary point found.
 Normal termination of Gaussian 09 at Thu Apr 14 11:56:25 2016.

 ----------------------------------------------------------------------
 #P Geom=AllCheck Guess=TCheck SCRF=Check Test GenChk RB3LYP/6-31G Freq
 ----------------------------------------------------------------------

 Structure from the checkpoint file:  "Ala-S-opt-freq-tsa3-6-31g.chk"
 -------------------------
 Ala-S-opt-freq-tsa3-6-31g
 -------------------------
 Charge =  0 Multiplicity = 1

                         Standard orientation:
 ---------------------------------------------------------------------
 Center     Atomic      Atomic             Coordinates (Angstroms)
 Number     Number       Type             X           Y           Z
 ---------------------------------------------------------------------
      1          7           0        1.195078    1.333860   -0.027225
      2          1           0        2.178090    1.511669    0.093124
      3          6           0        0.684580    0.070890   -0.007926
      4          1           0       -0.926223   -0.850388    1.043625
      5          6           0        1.618256   -1.099177   -0.021229
      6          6           0       -0.697082   -0.103270    0.115458
      7          1           0        2.306077   -1.094468    0.836265
      8          1           0        1.043472   -2.026745   -0.011819
      9          1           0        2.229666   -1.082793   -0.932994
     10          8           0       -1.449587    1.094428   -0.013652
     11          1           0        0.556903    2.111310   -0.108560
     12          8           0       -1.426326   -1.338806   -0.121687
     13          1           0       -2.380744    0.838760   -0.164172
 ---------------------------------------------------------------------

 SCF Done:  E(RB3LYP) =  -323.513219092     A.U. after    1 cycles

 The electronic state is 1-A.
 Alpha  occ. eigenvalues --  -19.15324 -19.10431 -14.36132 -10.26936 -10.25111
 Alpha  occ. eigenvalues --  -10.19311  -1.04981  -0.94693  -0.93890  -0.76847
 Alpha  occ. eigenvalues --   -0.69420  -0.57950  -0.54548  -0.52487  -0.48021
 Alpha  occ. eigenvalues --   -0.44124  -0.41628  -0.41042  -0.40124  -0.35526
 Alpha  occ. eigenvalues --   -0.32324  -0.29937  -0.24472  -0.17174
 Alpha virt. eigenvalues --   -0.02989   0.06556   0.09623   0.09938   0.13025
 Alpha virt. eigenvalues --    0.13723   0.17145   0.17842   0.20717   0.21797
 Alpha virt. eigenvalues --    0.24239   0.37092   0.38929   0.54239   0.55029

 Mulliken charges:
               1
     1  N   -0.755775
     2  H    0.323136
     3  C    0.416658
     4  H    0.312656
     5  C   -0.495115
     6  C    0.125974
     7  H    0.151956
     8  H    0.198801
     9  H    0.165259
    10  O   -0.611838
    11  H    0.357775
    12  O   -0.573181
    13  H    0.383693
 Sum of Mulliken charges =   0.00000

 Dipole moment (field-independent basis, Debye):
    X=              3.3262    Y=              2.2954    Z=              0.8999  Tot=              4.1403
 Quadrupole moment (field-independent basis, Debye-Ang):
   XX=            -30.1725   YY=            -37.6543   ZZ=            -36.7986
   XY=             -2.0917   XZ=             -0.2505   YZ=             -1.5559

  Exact polarizability:  71.955   9.967  53.336  -0.811  -2.244  27.517
 Approx polarizability: 137.167  48.414  97.516  -3.512  -4.347  37.811

 ******    1 imaginary frequencies (negative Signs) ******

                      1                      2                      3
                      A                      A                      A
 Frequencies --  -1437.7180               120.1477               157.9915
 Red. masses --      1.1836                 1.0680                 4.2435
 Frc consts  --      1.4414                 0.0091                 0.0624
 IR Inten    --   1313.1966                 0.2601                 3.6958

                      4                      5                      6
                      A                      A                      A
 Frequencies --    241.0517               300.8301               323.5087
 Red. masses --      4.0602                 1.1552                 3.0295
 Frc consts  --      0.1390                 0.0616                 0.1868
 IR Inten    --      4.6627               158.9143                19.8544

                      7                      8                      9
                      A                      A                      A
 Frequencies --    385.3611               432.4117               469.6620
 Red. masses --      2.4654                 1.6217                 2.1717
 Frc consts  --      0.2157                 0.1787                 0.2822
 IR Inten    --     14.1514                91.3075                57.1492

                     10                     11                     12
                      A                      A                      A
 Frequencies --    540.2186               598.1302               660.1118
 Red. masses --      5.1582                 1.6276                 2.3410
 Frc consts  --      0.8869                 0.3431                 0.6010
 IR Inten    --     10.9516               172.0115                53.0429

                     13                     14                     15
                      A                      A                      A
 Frequencies --    700.6739               905.0906               960.2861
 Red. masses --      3.4451                 1.2626                 2.3038
 Frc consts  --      0.9965                 0.6094                 1.2517
 IR Inten    --     39.6076                 1.2363               101.0903

                     16                     17                     18
                      A                      A                      A
 Frequencies --   1047.8051              1095.3137              1097.7174
 Red. masses --      1.3727                 1.9836                 1.4748
 Frc consts  --      0.8879                 1.4021                 1.0471
 IR Inten    --      3.1487                54.4441                 7.9323

                     19                     20                     21
                      A                      A                      A
 Frequencies --   1130.8306              1326.6751              1444.8206
 Red. masses --      2.8861                 1.6052                 2.7796
 Frc consts  --      2.1745                 1.6646                 3.4186
 IR Inten    --    260.0952                71.9677                39.8170

                     22                     23                     24
                      A                      A                      A
 Frequencies --   1458.5445              1517.9915              1536.5140
 Red. masses --      1.5132                 1.0909                 1.0492
 Frc consts  --      1.8967                 1.4810                 1.4594
 IR Inten    --     18.7887                11.9618                11.3522

                     25                     26                     27
                      A                      A                      A
 Frequencies --   1655.6472              1693.7887              2379.1945
 Red. masses --      2.7554                 1.3697                 1.0749
 Frc consts  --      4.4501                 2.3152                 3.5848
 IR Inten    --      2.3511               153.5179                81.9745

                     28                     29                     30
                      A                      A                      A
 Frequencies --   3028.1533              3082.6634              3169.7228
 Red. masses --      1.0417                 1.0958                 1.0949
 Frc consts  --      5.6279                 6.1350                 6.4811
 IR Inten    --     39.9821                19.4892                 1.4084

                     31                     32                     33
                      A                      A                      A
 Frequencies --   3608.0521              3672.9154              3744.0367
 Red. masses --      1.0448                 1.0650                 1.1036
 Frc consts  --      8.0134                 8.4647                 9.1146
 IR Inten    --     72.4275                54.7063                41.1474

 - Thermochemistry -
 -------------------
 Temperature   298.150 Kelvin.  Pressure   1.00000 Atm.
 Atom     1 has atomic number  7 and mass  14.00307

 Molecular mass:    89.04768 amu.
 Principal axes and moments of inertia in atomic units:
                           1         2         3
     Eigenvalues --   375.07791 554.62186 907.37307
           X            0.99711  -0.07591  -0.00345
           Y            0.07588   0.99707  -0.00987
           Z            0.00418   0.00958   0.99995
 This molecule is an asymmetric top.
 Rotational symmetry number  1.
 Rotational temperatures (Kelvin)      0.23092     0.15617     0.09546
 Rotational constants (GHZ):           4.81164     3.25400     1.98897
    1 imaginary frequencies ignored.
 Zero-point vibrational energy     266084.5 (Joules/Mol)
                                   63.59573 (Kcal/Mol)
 Warning -- explicit consideration of  10 degrees of freedom as
           vibrations may cause significant error
 Vibrational temperatures:    172.87   227.31   346.82   432.83   465.46
          (Kelvin)            554.45   622.14   675.74   777.25   860.57
                              949.75  1008.11  1302.22  1381.64  1507.56
                             1575.91  1579.37  1627.01  1908.79  2078.77
                             2098.52  2184.05  2210.70  2382.10  2436.98
                             3423.13  4356.83  4435.26  4560.52  5191.18
                             5284.50  5386.83

 Zero-point correction=                           0.101346 (Hartree/Particle)
 Thermal correction to Energy=                    0.108500
 Thermal correction to Enthalpy=                  0.109444
 Thermal correction to Gibbs Free Energy=         0.070882
 Sum of electronic and zero-point Energies=           -323.411873
 Sum of electronic and thermal Energies=              -323.404720
 Sum of electronic and thermal Enthalpies=            -323.403775
 Sum of electronic and thermal Free Energies=         -323.442337

                     E (Thermal)             CV                S
                      KCal/Mol        Cal/Mol-Kelvin    Cal/Mol-Kelvin
 Total                   68.084             25.613             81.159
 Electronic               0.000              0.000              0.000
 Translational            0.889              2.981             39.372
 Rotational               0.889              2.981             26.737
 Vibrational             66.307             19.652             15.050
 Vibration     1          0.609              1.932              3.098
 Vibration     2          0.621              1.894              2.574
 Vibration     3          0.658              1.778              1.795
 Vibration     4          0.693              1.672              1.412
 Vibration     5          0.708              1.628              1.292
 Vibration     6          0.754              1.501              1.018
 Vibration     7          0.793              1.400              0.851
 Vibration     8          0.827              1.317              0.739
 Vibration     9          0.895              1.161              0.565
 Vibration    10          0.956              1.036              0.453

 Optimization completed.
    -- Stationary point found.
 Normal termination of Gaussian 09 at Thu Apr 14 12:00:02 2016.
