 Gaussian 09, Revision D.01,
 Gaussian 09:  ES64L-G09RevD.01 24-Apr-2013

 -------------------------------------------
 # opt b3lyp/6-311++g(d,p) geom=connectivity
 -------------------------------------------

 -----------------------
 Val-S-opt-6-311++g(d,p)
 -----------------------
 Symbolic Z-matrix:
 Charge =  0 Multiplicity = 1

 SCF Done:  E(RB3LYP) =  -402.499392995     A.U. after   13 cycles
 SCF Done:  E(RB3LYP) =  -402.502682960     A.U. after   11 cycles
 SCF Done:  E(RB3LYP) =  -402.502870710     A.U. after   11 cycles
 SCF Done:  E(RB3LYP) =  -402.502417049     A.U. after   11 cycles
 SCF Done:  E(RB3LYP) =  -402.502912494     A.U. after    8 cycles
 SCF Done:  E(RB3LYP) =  -402.502940824     A.U. after   10 cycles
 SCF Done:  E(RB3LYP) =  -402.502947025     A.U. after    9 cycles
 SCF Done:  E(RB3LYP) =  -402.502948992     A.U. after    9 cycles
 SCF Done:  E(RB3LYP) =  -402.502950380     A.U. after    9 cycles
 SCF Done:  E(RB3LYP) =  -402.502950606     A.U. after    8 cycles
 Optimization completed.
    -- Stationary point found.

                         Standard orientation:
 ---------------------------------------------------------------------
 Center     Atomic      Atomic             Coordinates (Angstroms)
 Number     Number       Type             X           Y           Z
 ---------------------------------------------------------------------
      1          7           0        0.110465    1.963899   -0.134275
      2          1           0       -0.177342    2.162670    0.820173
      3          6           0        0.016537    0.525809   -0.390344
      4          1           0        0.128976    0.359805   -1.465307
      5          6           0        1.155887   -0.227343    0.347798
      6          6           0       -1.344794   -0.026082    0.033909
      7          6           0        1.022230   -1.752471    0.235345
      8          8           0       -1.887024    0.212709    1.085808
      9          1           0        1.037130   -2.074436   -0.810956
     10          1           0        1.857433   -2.240141    0.744570
     11          1           0        0.100487   -2.125925    0.688861
     12          1           0       -0.507508    2.484275   -0.748295
     13          8           0       -1.909093   -0.817812   -0.910356
     14          1           0       -2.757461   -1.128673   -0.556776
     15          1           0        1.069314    0.046031    1.407399
     16          6           0        2.522832    0.239922   -0.167271
     17          1           0        2.614149    1.324886   -0.115582
     18          1           0        3.325746   -0.208038    0.424931
     19          1           0        2.668605   -0.065931   -1.209332
 ---------------------------------------------------------------------

 The electronic state is 1-A.
 Alpha  occ. eigenvalues --  -19.18459 -19.12681 -14.30705 -10.31293 -10.22226
 Alpha  occ. eigenvalues --  -10.18706 -10.16489 -10.15676  -1.12447  -1.03515
 Alpha  occ. eigenvalues --   -0.90612  -0.80250  -0.71659  -0.68829  -0.62817
 Alpha  occ. eigenvalues --   -0.57227  -0.52700  -0.49983  -0.49197  -0.48026
 Alpha  occ. eigenvalues --   -0.46109  -0.42738  -0.42633  -0.40116  -0.39477
 Alpha  occ. eigenvalues --   -0.38643  -0.35331  -0.34423  -0.33825  -0.33440
 Alpha  occ. eigenvalues --   -0.30015  -0.25833
 Alpha virt. eigenvalues --   -0.01741  -0.01372   0.00151   0.00293   0.01251
 Alpha virt. eigenvalues --    0.02534   0.03742   0.03893   0.04725   0.05332
 Alpha virt. eigenvalues --    0.06801   0.07186   0.07769   0.08160   0.08726

 Mulliken charges:
               1
     1  N   -0.259392
     2  H    0.244042
     3  C   -0.570588
     4  H    0.248826
     5  C    0.457859
     6  C   -0.162529
     7  C   -0.673867
     8  O   -0.261459
     9  H    0.146295
    10  H    0.153933
    11  H    0.167429
    12  H    0.239041
    13  O   -0.115936
    14  H    0.275565
    15  H    0.178852
    16  C   -0.516854
    17  H    0.185208
    18  H    0.136011
    19  H    0.127563
 Sum of Mulliken charges =   0.00000

 Dipole moment (field-independent basis, Debye):
    X=             -0.3308    Y=             -0.6284    Z=             -1.0509  Tot=              1.2683
 Quadrupole moment (field-independent basis, Debye-Ang):
   XX=            -49.2717   YY=            -49.0772   ZZ=            -52.7840
   XY=             -0.4937   XZ=              4.2565   YZ=             -1.0167

 1\1\GINC-KALI\FOpt\RB3LYP\6-311++G(d,p)\C5H11N1O2\ROOT\28-Mar-2016\0\\
 # opt b3lyp/6-311++g(d,p) geom=connectivity\\Val-S-opt-6-311++g(d,p)\\
 0,1\N,-0.1285641044,1.9596509732,0.1889248454\H,0.1678092476,2.1838480
 097,-0.7572320488\C,-0.0311111657,0.5158788561,0.4091993301\H,-0.15345
 39405,0.3220570091,1.4784098532\C,-1.1599369811,-0.2226993342,-0.35921
 66684\C,1.336653313,-0.0196131011,-0.0153760695\C,-1.0209729057,-1.749
 6589236,-0.2843248177\O,1.8882287586,0.2480842807,-1.0553893898\H,-1.0
 448432289,-2.0982720372,0.7532338091\H,-1.8490477925,-2.2274805827,-0.

 Normal termination of Gaussian 09 at Mon Mar 28 16:39:02 2016.
