 Gaussian 09, Revision D.01,
 Gaussian 09:  ES64L-G09RevD.01 24-Apr-2013

 -----------------------
 # opt freq rb3lyp/6-31g
 -----------------------

 -----------------------
 Ala-S-opt-freq-p3-6-31g
 -----------------------
 Symbolic Z-matrix:
 Charge =  0 Multiplicity = 1

 SCF Done:  E(RB3LYP) =  -323.454520785     A.U. after   19 cycles
 SCF Done:  E(RB3LYP) =  -323.487433569     A.U. after   15 cycles
 SCF Done:  E(RB3LYP) =  -323.533571372     A.U. after   16 cycles
 SCF Done:  E(RB3LYP) =  -323.548941740     A.U. after   14 cycles
 SCF Done:  E(RB3LYP) =  -323.554720618     A.U. after   13 cycles
 SCF Done:  E(RB3LYP) =  -323.556785549     A.U. after   13 cycles
 SCF Done:  E(RB3LYP) =  -323.558498022     A.U. after   13 cycles
 SCF Done:  E(RB3LYP) =  -323.565214275     A.U. after   15 cycles
 SCF Done:  E(RB3LYP) =  -323.571439266     A.U. after   13 cycles
 SCF Done:  E(RB3LYP) =  -323.588779729     A.U. after   14 cycles
 SCF Done:  E(RB3LYP) =  -323.632105120     A.U. after   12 cycles
 SCF Done:  E(RB3LYP) =  -323.632163028     A.U. after   12 cycles
 SCF Done:  E(RB3LYP) =  -323.632215984     A.U. after   11 cycles
 SCF Done:  E(RB3LYP) =  -323.632298568     A.U. after   12 cycles
 SCF Done:  E(RB3LYP) =  -323.632345871     A.U. after   11 cycles
 SCF Done:  E(RB3LYP) =  -323.632357505     A.U. after   11 cycles
 SCF Done:  E(RB3LYP) =  -323.632363996     A.U. after    9 cycles
 SCF Done:  E(RB3LYP) =  -323.632368372     A.U. after    9 cycles
 SCF Done:  E(RB3LYP) =  -323.632368776     A.U. after    8 cycles
 Optimization completed.
    -- Stationary point found.
 Normal termination of Gaussian 09 at Sun Apr 10 11:09:04 2016.

 -----------------------------------------------------------------
 #N Geom=AllCheck Guess=TCheck SCRF=Check GenChk RB3LYP/6-31G Freq
 -----------------------------------------------------------------

 Structure from the checkpoint file:  "Ala-S-opt-freq-p3-6-31g.chk"
 -----------------------
 Ala-S-opt-freq-p3-6-31g
 -----------------------
 Charge =  0 Multiplicity = 1

                         Standard orientation:
 ---------------------------------------------------------------------
 Center     Atomic      Atomic             Coordinates (Angstroms)
 Number     Number       Type             X           Y           Z
 ---------------------------------------------------------------------
      1          7           0        1.414786    1.135551    0.042680
      2          1           0        2.336359    1.241151    0.435254
      3          6           0        0.682118   -0.068817    0.378503
      4          1           0       -2.475987   -0.791594   -0.002192
      5          6           0        1.252955   -1.306106   -0.348043
      6          6           0       -0.777121    0.158842    0.035116
      7          1           0        1.207904   -1.153751   -1.430222
      8          1           0        2.303829   -1.435054   -0.067386
      9          1           0        0.702472   -2.211925   -0.080310
     10          8           0       -1.274858    1.228981   -0.327754
     11          1           0        0.870362    1.979006   -0.062087
     12          8           0       -1.535307   -0.977211    0.208995
     13          1           0        0.685170   -0.294363    1.464803
 ---------------------------------------------------------------------

 SCF Done:  E(RB3LYP) =  -323.632368776     A.U. after    1 cycles

 The electronic state is 1-A.
 Alpha  occ. eigenvalues --  -19.20145 -19.15566 -14.29952 -10.33631 -10.23775
 Alpha  occ. eigenvalues --  -10.17356  -1.12194  -1.03491  -0.88881  -0.75520
 Alpha  occ. eigenvalues --   -0.67376  -0.59820  -0.52852  -0.49148  -0.47441
 Alpha  occ. eigenvalues --   -0.45294  -0.43500  -0.40711  -0.38580  -0.37834
 Alpha  occ. eigenvalues --   -0.36259  -0.32432  -0.28539  -0.21565
 Alpha virt. eigenvalues --   -0.01327   0.05859   0.09199   0.13520   0.14522
 Alpha virt. eigenvalues --    0.15644   0.17532   0.18372   0.21696   0.23408
 Alpha virt. eigenvalues --    0.24909   0.30574   0.36304   0.52481   0.55954

 Mulliken charges:
               1
     1  N   -0.730133
     2  H    0.286313
     3  C    0.006148
     4  H    0.387781
     5  C   -0.373398
     6  C    0.494601
     7  H    0.151943
     8  H    0.133809
     9  H    0.151596
    10  O   -0.418566
    11  H    0.314428
    12  O   -0.557207
    13  H    0.152684
 Sum of Mulliken charges =   0.00000

 Dipole moment (field-independent basis, Debye):
    X=              0.2784    Y=             -1.0201    Z=              1.2992  Tot=              1.6751
 Quadrupole moment (field-independent basis, Debye-Ang):
   XX=            -29.9900   YY=            -38.5807   ZZ=            -36.7428
   XY=              3.6481   XZ=              2.1006   YZ=              2.5769

  Exact polarizability:  48.504   0.424  48.291   2.042  -3.387  30.644
 Approx polarizability:  59.618  -1.273  73.850   3.999 -10.299  41.502

                      1                      2                      3
                      A                      A                      A
 Frequencies --     56.4603               185.8315               239.4653
 Red. masses --      4.8332                 1.1023                 1.1506
 Frc consts  --      0.0091                 0.0224                 0.0389
 IR Inten    --      1.1634                34.4391                 2.2180

                      4                      5                      6
                      A                      A                      A
 Frequencies --    264.2872               328.1056               415.6573
 Red. masses --      2.8945                 2.7926                 3.2588
 Frc consts  --      0.1191                 0.1771                 0.3317
 IR Inten    --      0.4703                19.2268                38.9880

                      7                      8                      9
                      A                      A                      A
 Frequencies --    431.5489               505.6067               574.5623
 Red. masses --      1.2561                 3.7691                 2.5074
 Frc consts  --      0.1378                 0.5677                 0.4877
 IR Inten    --    225.7696                36.4796                15.2153

                     10                     11                     12
                      A                      A                      A
 Frequencies --    630.7764               721.6857               798.7858
 Red. masses --      1.5100                 3.6884                 2.8166
 Frc consts  --      0.3540                 1.1318                 1.0589
 IR Inten    --    145.7217                56.2385                12.1096

                     13                     14                     15
                      A                      A                      A
 Frequencies --    947.3186              1043.6303              1113.7597
 Red. masses --      2.3025                 1.4371                 2.7927
 Frc consts  --      1.2174                 0.9222                 2.0410
 IR Inten    --      1.9544                 1.1641               289.0713

                     16                     17                     18
                      A                      A                      A
 Frequencies --   1125.3695              1197.9136              1224.1172
 Red. masses --      1.9010                 1.3555                 2.0725
 Frc consts  --      1.4185                 1.1460                 1.8297
 IR Inten    --     26.4033                 3.4188                 8.9476

                     19                     20                     21
                      A                      A                      A
 Frequencies --   1339.6393              1374.4207              1425.5386
 Red. masses --      1.7800                 1.3178                 1.7708
 Frc consts  --      1.8821                 1.4667                 2.1203
 IR Inten    --     33.3254                13.3570                 2.9228

                     22                     23                     24
                      A                      A                      A
 Frequencies --   1453.6703              1537.1133              1541.2271
 Red. masses --      1.2782                 1.0536                 1.0648
 Frc consts  --      1.5915                 1.4668                 1.4903
 IR Inten    --      3.4390                 8.0893                 8.4424

                     25                     26                     27
                      A                      A                      A
 Frequencies --   1670.6153              1747.4437              2911.1750
 Red. masses --      1.2302                 4.9691                 1.0787
 Frc consts  --      2.0229                 8.9400                 5.3863
 IR Inten    --    130.3612               171.3163                63.7374

                     28                     29                     30
                      A                      A                      A
 Frequencies --   3060.0020              3138.1101              3159.9017
 Red. masses --      1.0340                 1.1000                 1.1022
 Frc consts  --      5.7044                 6.3822                 6.4844
 IR Inten    --     23.0375                26.0415                20.2037

                     31                     32                     33
                      A                      A                      A
 Frequencies --   3598.8644              3613.2561              3730.8520
 Red. masses --      1.0445                 1.0640                 1.1012
 Frc consts  --      7.9705                 8.1842                 9.0308
 IR Inten    --     10.9612                32.9800                15.9118

 - Thermochemistry -
 -------------------
 Temperature   298.150 Kelvin.  Pressure   1.00000 Atm.
 Atom     1 has atomic number  7 and mass  14.00307

 Molecular mass:    89.04768 amu.
 Principal axes and moments of inertia in atomic units:
                           1         2         3
     Eigenvalues --   367.34372 547.43719 843.24476
           X            1.00000  -0.00091   0.00036
           Y            0.00090   0.99974   0.02278
           Z           -0.00038  -0.02278   0.99974
 This molecule is an asymmetric top.
 Rotational symmetry number  1.
 Rotational temperatures (Kelvin)      0.23578     0.15822     0.10271
 Rotational constants (GHZ):           4.91295     3.29671     2.14023
 Zero-point vibrational energy     281760.7 (Joules/Mol)
                                   67.34242 (Kcal/Mol)
 Warning -- explicit consideration of   9 degrees of freedom as
           vibrations may cause significant error
 Vibrational temperatures:     81.23   267.37   344.54   380.25   472.07
          (Kelvin)            598.04   620.90   727.45   826.67   907.55
                             1038.34  1149.27  1362.98  1501.55  1602.45
                             1619.15  1723.53  1761.23  1927.44  1977.48
                             2051.03  2091.50  2211.56  2217.48  2403.64
                             2514.18  4188.53  4402.65  4515.03  4546.39
                             5177.96  5198.66  5367.86

 Zero-point correction=                           0.107317 (Hartree/Particle)
 Thermal correction to Energy=                    0.114402
 Thermal correction to Enthalpy=                  0.115346
 Thermal correction to Gibbs Free Energy=         0.076461
 Sum of electronic and zero-point Energies=           -323.525052
 Sum of electronic and thermal Energies=              -323.517967
 Sum of electronic and thermal Enthalpies=            -323.517023
 Sum of electronic and thermal Free Energies=         -323.555908

                     E (Thermal)             CV                S
                      KCal/Mol        Cal/Mol-Kelvin    Cal/Mol-Kelvin
 Total                   71.788             24.830             81.840
 Electronic               0.000              0.000              0.000
 Translational            0.889              2.981             39.372
 Rotational               0.889              2.981             26.631
 Vibrational             70.011             18.869             15.837
 Vibration     1          0.596              1.975              4.577
 Vibration     2          0.632              1.859              2.269
 Vibration     3          0.657              1.780              1.807
 Vibration     4          0.671              1.738              1.633
 Vibration     5          0.711              1.619              1.269
 Vibration     6          0.779              1.436              0.907
 Vibration     7          0.793              1.402              0.854
 Vibration     8          0.861              1.238              0.644
 Vibration     9          0.931              1.086              0.496

 Normal termination of Gaussian 09 at Sun Apr 10 11:10:04 2016.
