 Gaussian 09, Revision D.01,
 Gaussian 09:  ES64L-G09RevD.01 24-Apr-2013

 ------------------------------------------------
 #p opt=(calcfc,ts) freq rb3lyp/6-31g iop(1/11=1)
 ------------------------------------------------

 -------------------------
 Ala-S-opt-freq-tsa3-6-31g
 -------------------------
 Symbolic Z-matrix:
 Charge =  0 Multiplicity = 1

 SCF Done:  E(RB3LYP) =  -323.427905976     A.U. after   20 cycles
 SCF Done:  E(RB3LYP) =  -323.449034629     A.U. after   16 cycles
 SCF Done:  E(RB3LYP) =  -323.469114269     A.U. after   16 cycles
 SCF Done:  E(RB3LYP) =  -323.490896517     A.U. after   15 cycles
 SCF Done:  E(RB3LYP) =  -323.511778480     A.U. after   14 cycles
 SCF Done:  E(RB3LYP) =  -323.527334455     A.U. after   13 cycles
 SCF Done:  E(RB3LYP) =  -323.535340790     A.U. after   13 cycles
 SCF Done:  E(RB3LYP) =  -323.539237322     A.U. after   13 cycles
 SCF Done:  E(RB3LYP) =  -323.540673362     A.U. after   13 cycles
 SCF Done:  E(RB3LYP) =  -323.535847162     A.U. after   13 cycles
 SCF Done:  E(RB3LYP) =  -323.535855559     A.U. after   11 cycles
 SCF Done:  E(RB3LYP) =  -323.535211650     A.U. after   14 cycles
 SCF Done:  E(RB3LYP) =  -323.535796124     A.U. after   13 cycles
 SCF Done:  E(RB3LYP) =  -323.535854670     A.U. after   12 cycles
 SCF Done:  E(RB3LYP) =  -323.535860563     A.U. after    9 cycles
 SCF Done:  E(RB3LYP) =  -323.535859722     A.U. after   10 cycles
 SCF Done:  E(RB3LYP) =  -323.535861141     A.U. after    8 cycles
 SCF Done:  E(RB3LYP) =  -323.535861351     A.U. after    8 cycles
 SCF Done:  E(RB3LYP) =  -323.535861448     A.U. after    8 cycles
 Optimization completed.
    -- Stationary point found.
 Normal termination of Gaussian 09 at Wed Apr 13 10:22:22 2016.

 ----------------------------------------------------------------------
 #P Geom=AllCheck Guess=TCheck SCRF=Check Test GenChk RB3LYP/6-31G Freq
 ----------------------------------------------------------------------

 Structure from the checkpoint file:  "Ala-S-opt-freq-tsa3-6-31g.chk"
 -------------------------
 Ala-S-opt-freq-tsa3-6-31g
 -------------------------
 Charge =  0 Multiplicity = 1

                         Standard orientation:
 ---------------------------------------------------------------------
 Center     Atomic      Atomic             Coordinates (Angstroms)
 Number     Number       Type             X           Y           Z
 ---------------------------------------------------------------------
      1          7           0       -1.378444   -1.249351    0.039448
      2          1           0       -2.254362   -1.179937   -0.468986
      3          6           0       -0.602017    0.130961    0.270434
      4          1           0        2.502762    0.783948   -0.036390
      5          6           0       -1.351161    1.358548   -0.151038
      6          6           0        0.781442   -0.104032    0.030508
      7          1           0       -2.304756    1.471348    0.379186
      8          1           0       -0.740210    2.234473    0.084363
      9          1           0       -1.560881    1.380842   -1.234464
     10          8           0        1.304383   -1.235888   -0.160192
     11          1           0       -0.714674   -1.963523   -0.267885
     12          8           0        1.563633    1.045178    0.067180
     13          1           0       -1.192476   -0.768873    1.112710
 ---------------------------------------------------------------------

 SCF Done:  E(RB3LYP) =  -323.535861448     A.U. after    1 cycles

 The electronic state is 1-A.
 Alpha  occ. eigenvalues --  -19.16835 -19.11119 -14.38212 -10.29977 -10.21132
 Alpha  occ. eigenvalues --  -10.18489  -1.08062  -0.99293  -0.94004  -0.76159
 Alpha  occ. eigenvalues --   -0.67526  -0.60531  -0.55256  -0.51641  -0.45352
 Alpha  occ. eigenvalues --   -0.44256  -0.42202  -0.40676  -0.39778  -0.36151
 Alpha  occ. eigenvalues --   -0.35080  -0.29033  -0.25792  -0.19698
 Alpha virt. eigenvalues --    0.01166   0.06721   0.07539   0.11249   0.11718
 Alpha virt. eigenvalues --    0.13736   0.15128   0.17767   0.19171   0.24472
 Alpha virt. eigenvalues --    0.25734   0.35626   0.38031   0.52665   0.54598

 Mulliken charges:
               1
     1  N   -0.751786
     2  H    0.332434
     3  C   -0.110345
     4  H    0.379287
     5  C   -0.446808
     6  C    0.489142
     7  H    0.131149
     8  H    0.189873
     9  H    0.129894
    10  O   -0.511976
    11  H    0.363803
    12  O   -0.583008
    13  H    0.388343
 Sum of Mulliken charges =   0.00000

 Dipole moment (field-independent basis, Debye):
    X=             -2.8601    Y=              0.0194    Z=             -0.6179  Tot=              2.9262
 Quadrupole moment (field-independent basis, Debye-Ang):
   XX=            -29.4487   YY=            -38.8748   ZZ=            -36.8730
   XY=              5.3387   XZ=              1.3525   YZ=              0.0376

  Exact polarizability:  61.209   2.302  51.825  -1.770   0.850  29.581
 Approx polarizability:  87.102   2.692  80.608  -6.781   3.484  40.909

 ******    1 imaginary frequencies (negative Signs) ******

                      1                      2                      3
                      A                      A                      A
 Frequencies --  -1634.9720               145.1863               192.7471
 Red. masses --      1.1039                 4.4278                 1.1016
 Frc consts  --      1.7386                 0.0550                 0.0241
 IR Inten    --   1786.4800                 0.8097                 0.1469

                      4                      5                      6
                      A                      A                      A
 Frequencies --    240.5087               289.5155               321.2216
 Red. masses --      3.3593                 3.6074                 2.2485
 Frc consts  --      0.1145                 0.1781                 0.1367
 IR Inten    --      1.2058                50.5007                 3.2488

                      7                      8                      9
                      A                      A                      A
 Frequencies --    345.1932               489.5615               536.9052
 Red. masses --      1.1487                 4.5420                 1.2080
 Frc consts  --      0.0806                 0.6414                 0.2052
 IR Inten    --     18.8289                25.7740               131.9678

                     10                     11                     12
                      A                      A                      A
 Frequencies --    578.6170               674.9870               743.9077
 Red. masses --      4.6576                 4.4786                 8.3616
 Frc consts  --      0.9187                 1.2022                 2.7263
 IR Inten    --     11.0077                70.0633                55.6976

                     13                     14                     15
                      A                      A                      A
 Frequencies --    890.1505               957.5522              1023.2596
 Red. masses --      3.6178                 1.2356                 1.3282
 Frc consts  --      1.6889                 0.6675                 0.8194
 IR Inten    --     23.6680               187.9277                24.5447

                     16                     17                     18
                      A                      A                      A
 Frequencies --   1087.1188              1111.9699              1147.9582
 Red. masses --      1.5682                 1.4900                 2.4048
 Frc consts  --      1.0920                 1.0854                 1.8672
 IR Inten    --    224.2367                64.8761                71.4370

                     19                     20                     21
                      A                      A                      A
 Frequencies --   1287.9206              1413.9681              1459.9718
 Red. masses --      1.8715                 1.4110                 2.4280
 Frc consts  --      1.8290                 1.6621                 3.0493
 IR Inten    --      4.1897                55.5174                47.8373

                     22                     23                     24
                      A                      A                      A
 Frequencies --   1463.7307              1530.1628              1542.7499
 Red. masses --      1.2158                 1.0557                 1.0939
 Frc consts  --      1.5347                 1.4563                 1.5340
 IR Inten    --      1.5983                20.5674                49.8985

                     25                     26                     27
                      A                      A                      A
 Frequencies --   1559.2264              1701.8159              2310.2727
 Red. masses --      1.1462                 4.2193                 1.0789
 Frc consts  --      1.6419                 7.1998                 3.3927
 IR Inten    --     66.9555               224.9775                78.3295

                     28                     29                     30
                      A                      A                      A
 Frequencies --   2984.3864              3070.9561              3144.8912
 Red. masses --      1.0535                 1.0840                 1.0931
 Frc consts  --      5.5285                 6.0231                 6.3695
 IR Inten    --     77.4412                38.1606                 5.3092

                     31                     32                     33
                      A                      A                      A
 Frequencies --   3428.6209              3612.0978              3633.2958
 Red. masses --      1.0456                 1.1007                 1.0641
 Frc consts  --      7.2420                 8.4616                 8.2764
 IR Inten    --     33.0201                29.6830                40.1945

 - Thermochemistry -
 -------------------
 Temperature   298.150 Kelvin.  Pressure   1.00000 Atm.
 Atom     1 has atomic number  7 and mass  14.00307

 Molecular mass:    89.04768 amu.
 Principal axes and moments of inertia in atomic units:
                           1         2         3
     Eigenvalues --   381.13536 545.36702 891.61383
           X            0.99995  -0.00848   0.00593
           Y            0.00853   0.99993  -0.00791
           Z           -0.00586   0.00796   0.99995
 This molecule is an asymmetric top.
 Rotational symmetry number  1.
 Rotational temperatures (Kelvin)      0.22725     0.15882     0.09714
 Rotational constants (GHZ):           4.73517     3.30922     2.02413
    1 imaginary frequencies ignored.
 Zero-point vibrational energy     268683.8 (Joules/Mol)
                                   64.21697 (Kcal/Mol)
 Warning -- explicit consideration of   9 degrees of freedom as
           vibrations may cause significant error
 Vibrational temperatures:    208.89   277.32   346.04   416.55   462.17
          (Kelvin)            496.66   704.37   772.49   832.50   971.15
                             1070.32  1280.73  1377.70  1472.24  1564.12
                             1599.87  1651.65  1853.03  2034.38  2100.57
                             2105.98  2201.56  2219.67  2243.38  2448.53
                             3323.96  4293.86  4418.42  4524.79  4933.01
                             5197.00  5227.50

 Zero-point correction=                           0.102336 (Hartree/Particle)
 Thermal correction to Energy=                    0.109157
 Thermal correction to Enthalpy=                  0.110101
 Thermal correction to Gibbs Free Energy=         0.072205
 Sum of electronic and zero-point Energies=           -323.433525
 Sum of electronic and thermal Energies=              -323.426704
 Sum of electronic and thermal Enthalpies=            -323.425760
 Sum of electronic and thermal Free Energies=         -323.463657

                     E (Thermal)             CV                S
                      KCal/Mol        Cal/Mol-Kelvin    Cal/Mol-Kelvin
 Total                   68.497             24.307             79.760
 Electronic               0.000              0.000              0.000
 Translational            0.889              2.981             39.372
 Rotational               0.889              2.981             26.719
 Vibrational             66.720             18.346             13.669
 Vibration     1          0.617              1.908              2.734
 Vibration     2          0.635              1.850              2.201
 Vibration     3          0.658              1.778              1.799
 Vibration     4          0.686              1.693              1.477
 Vibration     5          0.707              1.633              1.304
 Vibration     6          0.724              1.585              1.188
 Vibration     7          0.845              1.273              0.685
 Vibration     8          0.892              1.168              0.572
 Vibration     9          0.935              1.078              0.488

 Optimization completed.
    -- Stationary point found.
 Normal termination of Gaussian 09 at Wed Apr 13 10:23:29 2016.
