 Gaussian 09, Revision D.01,
 Gaussian 09:  ES64L-G09RevD.01 24-Apr-2013

 -------------------------
 # opt b3lyp/6-311++g(d,p)
 -------------------------

 -----------------------
 Phe-S-opt-6-311++g(d,p)
 -----------------------
 Symbolic Z-matrix:
 Charge =  0 Multiplicity = 1

 SCF Done:  E(RB3LYP) =  -554.958795217     A.U. after   15 cycles

 The electronic state is 1-A.
 Alpha  occ. eigenvalues --  -19.18348 -19.12606 -14.30937 -10.31543 -10.22753
 Alpha  occ. eigenvalues --  -10.19123 -10.18836 -10.18185 -10.18122 -10.18096
 Alpha  occ. eigenvalues --  -10.17996 -10.17958  -1.12501  -1.03560  -0.90829
 Alpha  occ. eigenvalues --   -0.86717  -0.79232  -0.75458  -0.73526  -0.68474
 Alpha  occ. eigenvalues --   -0.61655  -0.61046  -0.58615  -0.54260  -0.52270
 Alpha  occ. eigenvalues --   -0.49896  -0.48894  -0.47213  -0.46653  -0.45477
 Alpha  occ. eigenvalues --   -0.43865  -0.42959  -0.42242  -0.41383  -0.39736
 Alpha  occ. eigenvalues --   -0.37926  -0.36993  -0.35414  -0.34951  -0.33680
 Alpha  occ. eigenvalues --   -0.29588  -0.26982  -0.26286  -0.24721
 Alpha virt. eigenvalues --   -0.02457  -0.02235  -0.01372  -0.01129  -0.00508
 Alpha virt. eigenvalues --    0.00006   0.00783   0.01987   0.02306   0.03216
 Alpha virt. eigenvalues --    0.04302   0.05119   0.05302   0.05986   0.06903

 Mulliken charges:
               1
     1  N   -0.257550
     2  H    0.249536
     3  C   -0.476340
     4  H    0.245863
     5  C   -0.281773
     6  C   -0.271941
     7  H    0.172481
     8  H    0.197464
     9  C    0.956675
    10  O   -0.246162
    11  C   -0.370117
    12  C   -0.230009
    13  H    0.174776
    14  C   -0.378296
    15  C   -0.248786
    16  H    0.144379
    17  H    0.176903
    18  C   -0.298269
    19  H    0.173357
    20  H    0.147800
    21  H    0.232148
    22  O   -0.095017
    23  H    0.282878
 Sum of Mulliken charges =   0.00000

 Dipole moment (field-independent basis, Debye):
    X=              1.4412    Y=             -1.0655    Z=              0.1874  Tot=              1.8021
 Quadrupole moment (field-independent basis, Debye-Ang):
   XX=            -76.1030   YY=            -64.1129   ZZ=            -72.7449
   XY=              5.0464   XZ=              2.8518   YZ=              2.1183

 Optimization completed.
    -- Stationary point found.

                         Standard orientation:
 ---------------------------------------------------------------------
 Center     Atomic      Atomic             Coordinates (Angstroms)
 Number     Number       Type             X           Y           Z
 ---------------------------------------------------------------------
      1          7           0       -3.028003   -1.252341   -0.071738
      2          1           0       -3.379105   -0.852448   -0.937162
      3          6           0       -1.703065   -0.714105    0.235489
      4          1           0       -1.402143   -1.077909    1.219920
      5          6           0       -0.601609   -1.079106   -0.802637
      6          6           0       -1.854863    0.799973    0.314293
      7          1           0       -0.589327   -2.171711   -0.876814
      8          1           0       -0.916589   -0.691498   -1.775675
      9          6           0        0.781610   -0.573225   -0.459293
     10          8           0       -2.301957    1.479353   -0.577391
     11          6           0        1.283865    0.597444   -1.038600
     12          6           0        1.581135   -1.253462    0.467264
     13          1           0        0.681072    1.135179   -1.763364
     14          6           0        2.547810    1.077887   -0.698648
     15          6           0        2.843910   -0.776350    0.810032
     16          1           0        1.214519   -2.169548    0.920692
     17          1           0        2.921206    1.984501   -1.161999
     18          6           0        3.331398    0.393211    0.227849
     19          1           0        3.449286   -1.319480    1.527331
     20          1           0        4.315496    0.764288    0.491009
     21          1           0       -2.991912   -2.260440   -0.178931
     22          8           0       -1.426733    1.310487    1.485203
     23          1           0       -1.538110    2.273144    1.440177
 ---------------------------------------------------------------------

 1\1\GINC-KALI\FOpt\RB3LYP\6-311++G(d,p)\C9H11N1O2\ROOT\29-Mar-2016\0\\
 # opt b3lyp/6-311++g(d,p)\\Phe-S-opt-6-311++g(d,p)\\0,1\N,-3.02800305,
 -1.25234148,-0.07173767\H,-3.37910455,-0.8524485,-0.93716185\C,-1.7030
 6511,-0.71410504,0.23548883\H,-1.40214266,-1.07790925,1.21991952\C,-0.
 60160914,-1.07910647,-0.80263733\C,-1.85486323,0.79997322,0.31429279\H
 ,-0.5893271,-2.17171105,-0.8768144\H,-0.9165891,-0.69149759,-1.7756750
 1\C,0.78161028,-0.57322521,-0.45929349\O,-2.30195663,1.47935332,-0.577
 39071\C,1.28386454,0.59744354,-1.03859981\C,1.5811347,-1.25346236,0.46

 Normal termination of Gaussian 09 at Tue Mar 29 11:32:50 2016.
