 Gaussian 09, Revision D.01,
 Gaussian 09:  ES64L-G09RevD.01 24-Apr-2013

 --------------------
 #p freq rb3lyp/6-31g
 --------------------

 ------------------------
 Ala-S-opt-freq-pb1-6-31g
 ------------------------
 Symbolic Z-matrix:
 Charge =  0 Multiplicity = 1

                         Standard orientation:
 ---------------------------------------------------------------------
 Center     Atomic      Atomic             Coordinates (Angstroms)
 Number     Number       Type             X           Y           Z
 ---------------------------------------------------------------------
      1          7           0        1.297359   -1.138931    0.521584
      2          1           0        1.944803   -1.720978    0.012406
      3          6           0        0.644107   -0.071996   -0.216058
      4          1           0        0.507498   -0.767069   -0.878713
      5          6           0        1.393369    1.238858   -0.343559
      6          6           0       -0.779917   -0.040509   -0.006985
      7          1           0        2.318569    1.084942   -0.912079
      8          1           0        0.805246    2.002680   -0.864986
      9          1           0        1.679979    1.651022    0.639122
     10          8           0       -1.384542   -1.088997   -0.531138
     11          1           0        1.608815   -0.919183    1.463315
     12          8           0       -1.494578    0.966996    0.521049
     13          1           0       -2.458820    0.858996    0.370170
 ---------------------------------------------------------------------

 SCF Done:  E(RB3LYP) =  -323.552160529     A.U. after   16 cycles

 The electronic state is 1-A.
 Alpha  occ. eigenvalues --  -19.20877 -19.12243 -14.31462 -10.32399 -10.21542
 Alpha  occ. eigenvalues --  -10.18401  -1.11661  -0.99227  -0.90800  -0.76385
 Alpha  occ. eigenvalues --   -0.69122  -0.63960  -0.52531  -0.50081  -0.46683
 Alpha  occ. eigenvalues --   -0.45783  -0.42439  -0.41387  -0.40007  -0.36318
 Alpha  occ. eigenvalues --   -0.34971  -0.28975  -0.25676  -0.23149
 Alpha virt. eigenvalues --   -0.02333   0.05540   0.08162   0.12465   0.14071
 Alpha virt. eigenvalues --    0.15525   0.16399   0.20148   0.22256   0.22684
 Alpha virt. eigenvalues --    0.29186   0.31217   0.36523   0.53274   0.54089

 Mulliken charges:
               1
     1  N   -0.703760
     2  H    0.300271
     3  C   -0.010204
     4  H    0.208843
     5  C   -0.396265
     6  C    0.495068
     7  H    0.140014
     8  H    0.147016
     9  H    0.145396
    10  O   -0.465908
    11  H    0.280081
    12  O   -0.540556
    13  H    0.400004
 Sum of Mulliken charges =   0.00000

 Dipole moment (field-independent basis, Debye):
    X=              1.7790    Y=              2.0184    Z=              0.3832  Tot=              2.7177
 Quadrupole moment (field-independent basis, Debye-Ang):
   XX=            -28.6650   YY=            -40.2321   ZZ=            -35.6741
   XY=             -6.3825   XZ=             -1.0593   YZ=             -1.3306

  Exact polarizability:  47.637  -2.613  45.505   1.457   3.416  33.697
 Approx polarizability:  58.163  -0.934  70.945   4.093  12.692  47.966

 ******    1 imaginary frequencies (negative Signs) ******

                      1                      2                      3
                      A                      A                      A
 Frequencies --   -387.0621               102.2459               210.1751
 Red. masses --      1.6822                 2.4961                 1.3834
 Frc consts  --      0.1485                 0.0154                 0.0360
 IR Inten    --      5.0798                 7.2076                59.4448

                      4                      5                      6
                      A                      A                      A
 Frequencies --    226.1620               257.5295               319.4647
 Red. masses --      1.1237                 2.2443                 2.8170
 Frc consts  --      0.0339                 0.0877                 0.1694
 IR Inten    --     11.1476                27.5781                 4.5979

                      7                      8                      9
                      A                      A                      A
 Frequencies --    418.5337               562.4625               579.3051
 Red. masses --      2.3296                 1.5461                 2.2965
 Frc consts  --      0.2404                 0.2882                 0.4541
 IR Inten    --     14.0644               120.3447                44.0648

                     10                     11                     12
                      A                      A                      A
 Frequencies --    626.2276               655.5239               717.1396
 Red. masses --      2.4403                 1.4232                 3.6605
 Frc consts  --      0.5639                 0.3603                 1.1092
 IR Inten    --     37.6458               210.7055                43.6597

                     13                     14                     15
                      A                      A                      A
 Frequencies --    815.8216               950.3859              1084.2410
 Red. masses --      3.3202                 2.0298                 1.9707
 Frc consts  --      1.3020                 1.0802                 1.3650
 IR Inten    --      9.2111                18.9768                55.2955

                     16                     17                     18
                      A                      A                      A
 Frequencies --   1101.2044              1117.1193              1199.8665
 Red. masses --      1.3676                 1.8372                 2.3065
 Frc consts  --      0.9771                 1.3508                 1.9565
 IR Inten    --     19.8610                91.1960                73.0928

                     19                     20                     21
                      A                      A                      A
 Frequencies --   1250.3725              1329.2438              1452.0772
 Red. masses --      1.8963                 2.0954                 2.7497
 Frc consts  --      1.7467                 2.1813                 3.4159
 IR Inten    --     20.5844               125.8928               141.2382

                     22                     23                     24
                      A                      A                      A
 Frequencies --   1474.2823              1533.9796              1539.9417
 Red. masses --      1.2340                 1.0890                 1.0465
 Frc consts  --      1.5802                 1.5098                 1.4621
 IR Inten    --      3.7259                 0.8900                 8.8375

                     25                     26                     27
                      A                      A                      A
 Frequencies --   1609.2972              1742.5886              3012.0044
 Red. masses --      3.3504                 1.1284                 1.0468
 Frc consts  --      5.1123                 2.0188                 5.5954
 IR Inten    --     38.0313                23.5441                19.9762

                     28                     29                     30
                      A                      A                      A
 Frequencies --   3086.6209              3119.4441              3523.1814
 Red. masses --      1.0878                 1.0991                 1.0507
 Frc consts  --      6.1062                 6.3014                 7.6841
 IR Inten    --     26.7018                26.0338                 1.9225

                     31                     32                     33
                      A                      A                      A
 Frequencies --   3604.2069              3684.5036              4385.1265
 Red. masses --      1.0642                 1.0930                 1.0838
 Frc consts  --      8.1453                 8.7424                12.2793
 IR Inten    --     48.0885                 9.9056                 3.2051

 - Thermochemistry -
 -------------------
 Temperature   298.150 Kelvin.  Pressure   1.00000 Atm.
 Atom     1 has atomic number  7 and mass  14.00307

 Molecular mass:    89.04768 amu.
 Principal axes and moments of inertia in atomic units:
                           1         2         3
     Eigenvalues --   369.24277 594.33237 823.21905
           X            0.99997  -0.00452  -0.00563
           Y            0.00434   0.99949  -0.03154
           Z            0.00577   0.03151   0.99949
 This molecule is an asymmetric top.
 Rotational symmetry number  1.
 Rotational temperatures (Kelvin)      0.23457     0.14573     0.10521
 Rotational constants (GHZ):           4.88768     3.03659     2.19230
    1 imaginary frequencies ignored.
 Zero-point vibrational energy     282858.7 (Joules/Mol)
                                   67.60485 (Kcal/Mol)
 Warning -- explicit consideration of   8 degrees of freedom as
           vibrations may cause significant error
 Vibrational temperatures:    147.11   302.39   325.40   370.53   459.64
          (Kelvin)            602.18   809.26   833.49   901.00   943.15
                             1031.80  1173.78  1367.39  1559.98  1584.39
                             1607.28  1726.34  1799.00  1912.48  2089.21
                             2121.16  2207.05  2215.63  2315.42  2507.19
                             4333.60  4440.95  4488.18  5069.07  5185.64
                             5301.17  6309.21

 Zero-point correction=                           0.107735 (Hartree/Particle)
 Thermal correction to Energy=                    0.114524
 Thermal correction to Enthalpy=                  0.115468
 Thermal correction to Gibbs Free Energy=         0.077442
 Sum of electronic and zero-point Energies=           -323.444425
 Sum of electronic and thermal Energies=              -323.437637
 Sum of electronic and thermal Enthalpies=            -323.436692
 Sum of electronic and thermal Free Energies=         -323.474719

                     E (Thermal)             CV                S
                      KCal/Mol        Cal/Mol-Kelvin    Cal/Mol-Kelvin
 Total                   71.865             24.027             80.033
 Electronic               0.000              0.000              0.000
 Translational            0.889              2.981             39.372
 Rotational               0.889              2.981             26.693
 Vibrational             70.087             18.065             13.967
 Vibration     1          0.604              1.947              3.411
 Vibration     2          0.642              1.825              2.042
 Vibration     3          0.650              1.801              1.909
 Vibration     4          0.667              1.750              1.678
 Vibration     5          0.705              1.636              1.313
 Vibration     6          0.781              1.430              0.897
 Vibration     7          0.918              1.112              0.519
 Vibration     8          0.936              1.076              0.487

 Normal termination of Gaussian 09 at Wed Apr 13 00:18:19 2016.
