 Gaussian 09, Revision D.01,
 Gaussian 09:  ES64L-G09RevD.01 24-Apr-2013

 ------------------------
 #p opt freq rb3lyp/6-31g
 ------------------------

 ------------------------
 Ala-S-opt-freq-pb1-6-31g
 ------------------------
 Symbolic Z-matrix:
 Charge =  0 Multiplicity = 1

 SCF Done:  E(RB3LYP) =  -323.540435287     A.U. after   16 cycles
 SCF Done:  E(RB3LYP) =  -323.581726960     A.U. after   14 cycles
 SCF Done:  E(RB3LYP) =  -323.614740456     A.U. after   15 cycles
 SCF Done:  E(RB3LYP) =  -323.625475255     A.U. after   13 cycles
 SCF Done:  E(RB3LYP) =  -323.626783519     A.U. after   13 cycles
 SCF Done:  E(RB3LYP) =  -323.628011744     A.U. after   13 cycles
 SCF Done:  E(RB3LYP) =  -323.628942141     A.U. after   13 cycles
 SCF Done:  E(RB3LYP) =  -323.629701241     A.U. after   13 cycles
 SCF Done:  E(RB3LYP) =  -323.630060643     A.U. after   13 cycles
 SCF Done:  E(RB3LYP) =  -323.630324310     A.U. after   12 cycles
 SCF Done:  E(RB3LYP) =  -323.630559954     A.U. after   13 cycles
 SCF Done:  E(RB3LYP) =  -323.630697872     A.U. after   13 cycles
 SCF Done:  E(RB3LYP) =  -323.630827233     A.U. after   13 cycles
 SCF Done:  E(RB3LYP) =  -323.630891712     A.U. after   13 cycles
 SCF Done:  E(RB3LYP) =  -323.630949208     A.U. after   12 cycles
 SCF Done:  E(RB3LYP) =  -323.630976543     A.U. after   12 cycles
 SCF Done:  E(RB3LYP) =  -323.630977318     A.U. after    9 cycles
 SCF Done:  E(RB3LYP) =  -323.630977523     A.U. after    8 cycles
 SCF Done:  E(RB3LYP) =  -323.630977581     A.U. after    8 cycles
 Optimization completed.
    -- Stationary point found.
 Normal termination of Gaussian 09 at Sat Apr 16 13:16:25 2016.

 -----------------------------------------------------------------
 #P Geom=AllCheck Guess=TCheck SCRF=Check GenChk RB3LYP/6-31G Freq
 -----------------------------------------------------------------

 Structure from the checkpoint file:  "Ala-S-opt-freq-pb1-6-31g.chk"
 ------------------------
 Ala-S-opt-freq-pb1-6-31g
 ------------------------
 Charge =  0 Multiplicity = 1

                         Standard orientation:
 ---------------------------------------------------------------------
 Center     Atomic      Atomic             Coordinates (Angstroms)
 Number     Number       Type             X           Y           Z
 ---------------------------------------------------------------------
      1          7           0        1.234968   -1.152113   -0.537175
      2          1           0        2.162938   -1.197277   -0.936640
      3          6           0        0.665859    0.189567   -0.429461
      4          1           0        0.734992    0.670642   -1.409718
      5          6           0        1.335325    1.103110    0.630031
      6          6           0       -0.817577    0.069433   -0.138539
      7          1           0        2.396941    1.224174    0.387118
      8          1           0        0.873787    2.097483    0.655709
      9          1           0        1.254235    0.652718    1.624947
     10          8           0       -1.728810    0.668945   -0.709670
     11          1           0        1.108136   -1.733789    0.281265
     12          8           0       -1.053719   -0.788945    0.921076
     13          1           0       -2.017209   -0.861824    1.094113
 ---------------------------------------------------------------------

 SCF Done:  E(RB3LYP) =  -323.630977581     A.U. after    1 cycles

 The electronic state is 1-A.
 Alpha  occ. eigenvalues --  -19.19720 -19.15005 -14.30992 -10.33151 -10.23650
 Alpha  occ. eigenvalues --  -10.18155  -1.11564  -1.02947  -0.89527  -0.75597
 Alpha  occ. eigenvalues --   -0.67634  -0.60833  -0.51521  -0.49218  -0.46780
 Alpha  occ. eigenvalues --   -0.45353  -0.43608  -0.40979  -0.39864  -0.37586
 Alpha  occ. eigenvalues --   -0.36725  -0.31996  -0.28198  -0.22313
 Alpha virt. eigenvalues --   -0.00854   0.05434   0.09254   0.13010   0.13415
 Alpha virt. eigenvalues --    0.15788   0.17382   0.17752   0.20278   0.20675
 Alpha virt. eigenvalues --    0.26378   0.29948   0.35314   0.52362   0.56054

 Mulliken charges:
               1
     1  N   -0.693189
     2  H    0.287319
     3  C   -0.025542
     4  H    0.171164
     5  C   -0.405148
     6  C    0.517771
     7  H    0.138904
     8  H    0.145662
     9  H    0.151559
    10  O   -0.410127
    11  H    0.302521
    12  O   -0.568294
    13  H    0.387399
 Sum of Mulliken charges =   0.00000

 Dipole moment (field-independent basis, Debye):
    X=              1.8818    Y=             -0.4896    Z=              1.7179  Tot=              2.5946
 Quadrupole moment (field-independent basis, Debye-Ang):
   XX=            -32.0829   YY=            -37.0340   ZZ=            -37.4068
   XY=              2.9408   XZ=             -5.2689   YZ=             -0.7849

  Exact polarizability:  47.821  -1.804  41.480  -1.235  -4.799  38.327
 Approx polarizability:  61.649  -7.738  57.740   2.274 -13.093  55.515

                      1                      2                      3
                      A                      A                      A
 Frequencies --     46.3655               222.9927               239.7227
 Red. masses --      5.1223                 1.4755                 2.4267
 Frc consts  --      0.0065                 0.0432                 0.0822
 IR Inten    --      0.8344                 9.9331                 4.7506

                      4                      5                      6
                      A                      A                      A
 Frequencies --    253.0373               309.0910               359.9117
 Red. masses --      1.0969                 2.1174                 2.7120
 Frc consts  --      0.0414                 0.1192                 0.2070
 IR Inten    --     28.6560                26.3058                12.1066

                      7                      8                      9
                      A                      A                      A
 Frequencies --    520.1047               576.2281               605.1565
 Red. masses --      2.8899                 1.7119                 2.3449
 Frc consts  --      0.4606                 0.3349                 0.5060
 IR Inten    --     30.4338                71.0175                51.8943

                     10                     11                     12
                      A                      A                      A
 Frequencies --    618.5615               757.4886               781.1128
 Red. masses --      1.2629                 5.3691                 3.2403
 Frc consts  --      0.2847                 1.8151                 1.1648
 IR Inten    --    342.5786                38.4392                 5.9235

                     13                     14                     15
                      A                      A                      A
 Frequencies --    920.5113              1032.4790              1072.1051
 Red. masses --      2.1870                 1.6023                 1.5268
 Frc consts  --      1.0918                 1.0063                 1.0339
 IR Inten    --     11.2340                77.0557               105.4231

                     16                     17                     18
                      A                      A                      A
 Frequencies --   1082.2061              1188.1358              1249.8474
 Red. masses --      3.3268                 1.7157                 1.7154
 Frc consts  --      2.2956                 1.4270                 1.5788
 IR Inten    --     44.2078                73.0964                 7.7271

                     19                     20                     21
                      A                      A                      A
 Frequencies --   1358.8953              1369.6614              1427.8735
 Red. masses --      2.1440                 1.3738                 1.3771
 Frc consts  --      2.3326                 1.5184                 1.6542
 IR Inten    --     27.0444                18.0897                14.9557

                     22                     23                     24
                      A                      A                      A
 Frequencies --   1443.8081              1532.4008              1541.9275
 Red. masses --      1.2051                 1.0478                 1.0624
 Frc consts  --      1.4801                 1.4497                 1.4882
 IR Inten    --      5.3095                 3.9884                 8.9528

                     25                     26                     27
                      A                      A                      A
 Frequencies --   1690.3554              1761.7577              3044.1322
 Red. masses --      1.0945                 9.0886                 1.0335
 Frc consts  --      1.8426                16.6203                 5.6427
 IR Inten    --     38.1104               227.0894                20.3110

                     28                     29                     30
                      A                      A                      A
 Frequencies --   3098.3566              3122.9936              3138.8743
 Red. masses --      1.0863                 1.1003                 1.1005
 Frc consts  --      6.1441                 6.3229                 6.3884
 IR Inten    --      6.4359                29.1361                28.2627

                     31                     32                     33
                      A                      A                      A
 Frequencies --   3558.9807              3614.4860              3684.7334
 Red. masses --      1.0439                 1.0640                 1.0995
 Frc consts  --      7.7908                 8.1904                 8.7957
 IR Inten    --      3.1458                28.2943                 5.4929

 - Thermochemistry -
 -------------------
 Temperature   298.150 Kelvin.  Pressure   1.00000 Atm.
 Atom     1 has atomic number  7 and mass  14.00307

 Molecular mass:    89.04768 amu.
 Principal axes and moments of inertia in atomic units:
                           1         2         3
     Eigenvalues --   367.56893 643.60869 724.57303
           X            0.99896   0.04438  -0.01043
           Y           -0.04353   0.99653   0.07097
           Z            0.01355  -0.07044   0.99742
 This molecule is an asymmetric top.
 Rotational symmetry number  1.
 Rotational temperatures (Kelvin)      0.23564     0.13458     0.11954
 Rotational constants (GHZ):           4.90994     2.80410     2.49077
 Zero-point vibrational energy     282464.0 (Joules/Mol)
                                   67.51052 (Kcal/Mol)
 Warning -- explicit consideration of  10 degrees of freedom as
           vibrations may cause significant error
 Vibrational temperatures:     66.71   320.84   344.91   364.06   444.71
          (Kelvin)            517.83   748.31   829.06   870.68   889.97
                             1089.86  1123.85  1324.41  1485.51  1542.52
                             1557.05  1709.46  1798.25  1955.14  1970.63
                             2054.39  2077.32  2204.78  2218.49  2432.04
                             2534.77  4379.82  4457.84  4493.29  4516.13
                             5120.57  5200.43  5301.50

 Zero-point correction=                           0.107585 (Hartree/Particle)
 Thermal correction to Energy=                    0.114605
 Thermal correction to Enthalpy=                  0.115549
 Thermal correction to Gibbs Free Energy=         0.076647
 Sum of electronic and zero-point Energies=           -323.523393
 Sum of electronic and thermal Energies=              -323.516373
 Sum of electronic and thermal Enthalpies=            -323.515429
 Sum of electronic and thermal Free Energies=         -323.554330

                     E (Thermal)             CV                S
                      KCal/Mol        Cal/Mol-Kelvin    Cal/Mol-Kelvin
 Total                   71.916             24.631             81.875
 Electronic               0.000              0.000              0.000
 Translational            0.889              2.981             39.372
 Rotational               0.889              2.981             26.641
 Vibrational             70.138             18.670             15.862
 Vibration     1          0.595              1.979              4.967
 Vibration     2          0.649              1.806              1.935
 Vibration     3          0.657              1.780              1.805
 Vibration     4          0.664              1.758              1.709
 Vibration     5          0.698              1.656              1.367
 Vibration     6          0.734              1.555              1.122
 Vibration     7          0.875              1.205              0.610
 Vibration     8          0.933              1.083              0.492
 Vibration     9          0.964              1.021              0.441
 Vibration    10          0.978              0.993              0.419

 Optimization completed.
    -- Stationary point found.
 Normal termination of Gaussian 09 at Sat Apr 16 13:18:14 2016.
