 Gaussian 09, Revision D.01,
 Gaussian 09:  ES64L-G09RevD.01 24-Apr-2013

 ------------------------------------------------
 #p opt=(calcfc,ts) freq rb3lyp/6-31g iop(1/11=1)
 ------------------------------------------------

 -------------------------
 Ala-S-opt-freq-tsa3-6-31g
 -------------------------
 Symbolic Z-matrix:
 Charge =  0 Multiplicity = 1

 SCF Done:  E(RB3LYP) =  -323.394070633     A.U. after   16 cycles
 SCF Done:  E(RB3LYP) =  -323.427611730     A.U. after   14 cycles
 SCF Done:  E(RB3LYP) =  -323.452344989     A.U. after   13 cycles
 SCF Done:  E(RB3LYP) =  -323.467742069     A.U. after   14 cycles
 SCF Done:  E(RB3LYP) =  -323.473571806     A.U. after   15 cycles
 SCF Done:  E(RB3LYP) =  -323.482330333     A.U. after   14 cycles
 SCF Done:  E(RB3LYP) =  -323.486390746     A.U. after   15 cycles
 SCF Done:  E(RB3LYP) =  -323.490346864     A.U. after   15 cycles
 SCF Done:  E(RB3LYP) =  -323.495213240     A.U. after   15 cycles
 SCF Done:  E(RB3LYP) =  -323.504147833     A.U. after   15 cycles
 SCF Done:  E(RB3LYP) =  -323.513521110     A.U. after   14 cycles
 SCF Done:  E(RB3LYP) =  -323.513257791     A.U. after   15 cycles
 SCF Done:  E(RB3LYP) =  -323.513525214     A.U. after   13 cycles
 SCF Done:  E(RB3LYP) =  -323.513525978     A.U. after   12 cycles
 SCF Done:  E(RB3LYP) =  -323.513426738     A.U. after   15 cycles
 SCF Done:  E(RB3LYP) =  -323.513515116     A.U. after   14 cycles
 SCF Done:  E(RB3LYP) =  -323.513534738     A.U. after   14 cycles
 SCF Done:  E(RB3LYP) =  -323.513536045     A.U. after   10 cycles
 SCF Done:  E(RB3LYP) =  -323.513536117     A.U. after    8 cycles
 Optimization completed.
    -- Stationary point found.
 Normal termination of Gaussian 09 at Wed Apr 13 08:09:21 2016.

 ----------------------------------------------------------------------
 #P Geom=AllCheck Guess=TCheck SCRF=Check Test GenChk RB3LYP/6-31G Freq
 ----------------------------------------------------------------------

 Structure from the checkpoint file:  "Ala-S-opt-freq-tsa3-6-31g.chk"
 -------------------------
 Ala-S-opt-freq-tsa3-6-31g
 -------------------------
 Charge =  0 Multiplicity = 1

                         Standard orientation:
 ---------------------------------------------------------------------
 Center     Atomic      Atomic             Coordinates (Angstroms)
 Number     Number       Type             X           Y           Z
 ---------------------------------------------------------------------
      1          7           0        1.151693   -1.348063   -0.104683
      2          1           0        2.128657   -1.572590   -0.023343
      3          6           0        0.681589   -0.077278    0.010727
      4          1           0       -2.230928    1.244855   -0.106419
      5          6           0        1.636969    1.073523    0.050673
      6          6           0       -0.701494    0.070958    0.140183
      7          1           0        2.149863    1.175486   -0.915333
      8          1           0        1.102413    2.002459    0.250011
      9          1           0        2.409631    0.935573    0.820006
     10          8           0       -1.576351   -1.100724   -0.022316
     11          1           0        0.466722   -2.079444   -0.250503
     12          8           0       -1.258759    1.335048   -0.147536
     13          1           0       -1.109715   -0.547714    1.107691
 ---------------------------------------------------------------------

 SCF Done:  E(RB3LYP) =  -323.513536117     A.U. after    1 cycles

 The electronic state is 1-A.
 Alpha  occ. eigenvalues --  -19.15038 -19.10885 -14.35988 -10.26592 -10.25124
 Alpha  occ. eigenvalues --  -10.19420  -1.04751  -0.96074  -0.92667  -0.76981
 Alpha  occ. eigenvalues --   -0.68787  -0.58544  -0.55204  -0.50695  -0.48126
 Alpha  occ. eigenvalues --   -0.44149  -0.42497  -0.41295  -0.39661  -0.34797
 Alpha  occ. eigenvalues --   -0.32649  -0.29406  -0.25035  -0.17349
 Alpha virt. eigenvalues --   -0.03378   0.07293   0.08763   0.10879   0.12629
 Alpha virt. eigenvalues --    0.14461   0.16322   0.17482   0.20359   0.23354
 Alpha virt. eigenvalues --    0.24962   0.34934   0.38432   0.53677   0.55189

 Mulliken charges:
               1
     1  N   -0.755318
     2  H    0.321694
     3  C    0.418972
     4  H    0.379786
     5  C   -0.473685
     6  C    0.087270
     7  H    0.168641
     8  H    0.199417
     9  H    0.148936
    10  O   -0.579053
    11  H    0.351900
    12  O   -0.588418
    13  H    0.319858
 Sum of Mulliken charges =   0.00000

 Dipole moment (field-independent basis, Debye):
    X=              3.3535    Y=             -0.0953    Z=              1.0400  Tot=              3.5123
 Quadrupole moment (field-independent basis, Debye-Ang):
   XX=            -31.0690   YY=            -36.5779   ZZ=            -36.6991
   XY=             -6.2391   XZ=             -1.2474   YZ=              0.1506

  Exact polarizability:  73.233   0.880  49.673  -2.922  -0.091  28.081
 Approx polarizability: 143.448  11.094  74.267  -8.557   0.404  38.641

 ******    1 imaginary frequencies (negative Signs) ******

                      1                      2                      3
                      A                      A                      A
 Frequencies --  -1482.9365                84.7953               159.1578
 Red. masses --      1.1862                 1.0455                 4.4056
 Frc consts  --      1.5369                 0.0044                 0.0658
 IR Inten    --   1107.2411                 1.5197                12.1210

                      4                      5                      6
                      A                      A                      A
 Frequencies --    224.5197               245.2626               317.8036
 Red. masses --      4.3109                 1.3967                 2.0862
 Frc consts  --      0.1280                 0.0495                 0.1241
 IR Inten    --      3.2227                84.1871                55.8799

                      7                      8                      9
                      A                      A                      A
 Frequencies --    383.8604               446.5298               476.5400
 Red. masses --      2.9627                 1.9296                 1.7465
 Frc consts  --      0.2572                 0.2267                 0.2337
 IR Inten    --     22.7952               101.9575                69.1506

                     10                     11                     12
                      A                      A                      A
 Frequencies --    547.8096               615.0656               681.6058
 Red. masses --      4.3072                 2.0144                 2.4145
 Frc consts  --      0.7616                 0.4490                 0.6609
 IR Inten    --     13.7352               124.5475                55.1743

                     13                     14                     15
                      A                      A                      A
 Frequencies --    726.5154               926.4154               979.9238
 Red. masses --      2.4674                 2.8706                 1.1429
 Frc consts  --      0.7673                 1.4515                 0.6466
 IR Inten    --     58.1912                61.8854                26.2511

                     16                     17                     18
                      A                      A                      A
 Frequencies --   1050.9457              1092.6489              1099.3245
 Red. masses --      1.3389                 1.6285                 1.6323
 Frc consts  --      0.8713                 1.1455                 1.1622
 IR Inten    --      4.7206                19.8448                38.6412

                     19                     20                     21
                      A                      A                      A
 Frequencies --   1164.9798              1325.3076              1456.9075
 Red. masses --      3.0524                 1.6552                 1.3918
 Frc consts  --      2.4408                 1.7129                 1.7406
 IR Inten    --    287.9713                29.5680                19.8011

                     22                     23                     24
                      A                      A                      A
 Frequencies --   1463.5331              1519.8261              1531.7387
 Red. masses --      2.8601                 1.0849                 1.0550
 Frc consts  --      3.6094                 1.4764                 1.4584
 IR Inten    --     25.8763                12.6260                12.3602

                     25                     26                     27
                      A                      A                      A
 Frequencies --   1644.9346              1682.6697              2362.9700
 Red. masses --      2.0076                 1.7844                 1.0755
 Frc consts  --      3.2006                 2.9768                 3.5381
 IR Inten    --     22.3581               132.4927                88.6791

                     28                     29                     30
                      A                      A                      A
 Frequencies --   3029.3917              3080.4071              3181.0897
 Red. masses --      1.0415                 1.0971                 1.0938
 Frc consts  --      5.6312                 6.1335                 6.5211
 IR Inten    --     39.1447                19.7941                 1.9095

                     31                     32                     33
                      A                      A                      A
 Frequencies --   3567.3151              3670.3388              3735.5119
 Red. masses --      1.0481                 1.0651                 1.0996
 Frc consts  --      7.8587                 8.4538                 9.0405
 IR Inten    --     43.2344                47.6675                45.6000

 - Thermochemistry -
 -------------------
 Temperature   298.150 Kelvin.  Pressure   1.00000 Atm.
 Atom     1 has atomic number  7 and mass  14.00307

 Molecular mass:    89.04768 amu.
 Principal axes and moments of inertia in atomic units:
                           1         2         3
     Eigenvalues --   378.41417 548.10054 900.36557
           X            0.99991   0.01191  -0.00560
           Y           -0.01191   0.99993   0.00017
           Z            0.00560  -0.00011   0.99998
 This molecule is an asymmetric top.
 Rotational symmetry number  1.
 Rotational temperatures (Kelvin)      0.22889     0.15803     0.09620
 Rotational constants (GHZ):           4.76922     3.29272     2.00445
    1 imaginary frequencies ignored.
 Zero-point vibrational energy     266023.4 (Joules/Mol)
                                   63.58113 (Kcal/Mol)
 Warning -- explicit consideration of  10 degrees of freedom as
           vibrations may cause significant error
 Vibrational temperatures:    122.00   228.99   323.03   352.88   457.25
          (Kelvin)            552.29   642.46   685.63   788.17   884.94
                              980.68  1045.29  1332.90  1409.89  1512.07
                             1572.08  1581.68  1676.14  1906.82  2096.16
                             2105.70  2186.69  2203.83  2366.69  2420.98
                             3399.78  4358.61  4432.01  4576.87  5132.56
                             5280.79  5374.56

 Zero-point correction=                           0.101323 (Hartree/Particle)
 Thermal correction to Energy=                    0.108586
 Thermal correction to Enthalpy=                  0.109531
 Thermal correction to Gibbs Free Energy=         0.070506
 Sum of electronic and zero-point Energies=           -323.412213
 Sum of electronic and thermal Energies=              -323.404950
 Sum of electronic and thermal Enthalpies=            -323.404006
 Sum of electronic and thermal Free Energies=         -323.443030

                     E (Thermal)             CV                S
                      KCal/Mol        Cal/Mol-Kelvin    Cal/Mol-Kelvin
 Total                   68.139             25.509             82.134
 Electronic               0.000              0.000              0.000
 Translational            0.889              2.981             39.372
 Rotational               0.889              2.981             26.726
 Vibrational             66.362             19.547             16.036
 Vibration     1          0.601              1.960              3.777
 Vibration     2          0.621              1.892              2.560
 Vibration     3          0.649              1.804              1.922
 Vibration     4          0.660              1.771              1.764
 Vibration     5          0.704              1.640              1.321
 Vibration     6          0.753              1.505              1.024
 Vibration     7          0.806              1.369              0.806
 Vibration     8          0.833              1.302              0.719
 Vibration     9          0.903              1.144              0.549
 Vibration    10          0.975              1.000              0.424

 Optimization completed.
    -- Stationary point found.
 Normal termination of Gaussian 09 at Wed Apr 13 08:10:44 2016.
